#PHAST restart file
#Prefix: print_check_ss
#Date: Thu May 31 09:03:07 2007
#Current model time: 31000
#nx, ny, nz: 16, 9, 3
SOLUTION_RAW       -2 
  -temp              25
  -pH                7
  -pe                4
  -mu                1e-07
  -ah2o              1
  -total_h           111.05057778704
  -total_o           55.594726828086
  -cb                0.033804955906319
  -mass_water        1
  -total_alkalinity  0
  -totals
    As   3.1008176862747e-09
    C   0.029173733865875
    Ca   0.021817174063468
    Cl   0.51892109182918
    Mg   0.013989715980808
    Na   0.49895901715912
    S   0.00058579044192307
  -activities
    As   -10.508523767517
    C(-4)   -3.5350079831659
    C(4)   -3.5350079831659
    Ca   -3.6612015034325
    Cl   -2.2848986768116
    Mg   -3.8541911024646
    Na   -2.3019351244219
    S(-2)   -5.2322577187827
    S(6)   -5.2322577187827
  -gammas
  -Isotopes
SOLUTION_RAW       0 
  -temp              25
  -pH                5.4364963525335
  -pe                15.234423738621
  -mu                4.2884819640101
  -ah2o              0.87161386937858
  -total_h           111.03411760662
  -total_o           55.570898186492
  -cb                0.019210845664708
  -mass_water        1.0000930153105
  -total_alkalinity  0.011355850499239
  -totals
    As   2.1396346752377e-08
    C   0.018185284063313
    Ca   0.24385179490024
    Cl   3.9285939205744
    Mg   0.10802795457926
    Na   3.2611829147045
    S   0.0028908877643958
  -activities
    As   -10.556126517348
    C(-4)   -142.59461076065
    C(4)   -7.6042843294025
    Ca   -0.8755455457513
    Cl   0.34644389400492
    Mg   -1.0058857954436
    Na   0.55113781181129
    S(-2)   -141.06393247485
    S(6)   -4.1487786233966
  -gammas
  -Isotopes
SOLUTION_RAW       1 
  -temp              25
  -pH                5.6628781347707
  -pe                14.978697485001
  -mu                2.0206498079819
  -ah2o              0.93860981792459
  -total_h           111.05773030246
  -total_o           55.609949409274
  -cb                0.044280106549063
  -mass_water        1.0002670959656
  -total_alkalinity  0.015656794256
  -totals
    As   7.7985790213296e-09
    C   0.033502902503238
    Ca   0.099877138017498
    Cl   1.8382645897635
    Mg   0.054793168482719
    Na   1.5918163415238
    S   0.0014777280785504
  -activities
    As   -11.541333733892
    C(-4)   -142.2336680007
    C(4)   -6.9288512871658
    Ca   -1.5509785879881
    Cl   0.019682847480548
    Mg   -1.6813188376804
    Na   0.10000563852201
    S(-2)   -141.20166391152
    S(6)   -4.1662403058624
  -gammas
  -Isotopes
SOLUTION_RAW       2 
  -temp              25
  -pH                6.1170626572093
  -pe                14.500686333895
  -mu                0.65194016496343
  -ah2o              0.97954560726741
  -total_h           111.05336877472
  -total_o           55.599556580553
  -cb                0.036725946282006
  -mass_water        1.0002164611312
  -total_alkalinity  0.016933415977829
  -totals
    As   1.7853593608641e-09
    C   0.030744733403273
    Ca   0.024518745631214
    Cl   0.58046661942316
    Mg   0.015770368480016
    Na   0.55480255167549
    S   0.00062739821480111
  -activities
    As   -12.882855967063
    C(-4)   -142.32798434618
    C(4)   -6.2497931107241
    Ca   -2.2300367644297
    Cl   -0.43985174790267
    Mg   -2.3603770141221
    Na   -0.40814487396641
    S(-2)   -141.57277745923
    S(6)   -4.199624224168
  -gammas
  -Isotopes
SOLUTION_RAW       3 
  -temp              25
  -pH                6.6679992146725
  -pe                13.94092947804
  -mu                0.18894584096002
  -ah2o              0.99384869564262
  -total_h           111.03600887595
  -total_o           55.569825415556
  -cb                0.018040368460134
  -mass_water        1.0000692496487
  -total_alkalinity  0.015933396267889
  -totals
    As   1.3684505508656e-09
    C   0.021029984132335
    Ca   0.0045007211816458
    Cl   0.15728988864051
    Mg   0.0031287401594525
    Na   0.17668735422444
    S   0.00034131108482878
  -activities
    As   -13.762491390127
    C(-4)   -142.74770292179
    C(4)   -5.619314139228
    Ca   -2.8605157359258
    Cl   -0.94813535446036
    Mg   -2.9908559856182
    Na   -0.88168048101807
    S(-2)   -142.01914132824
    S(6)   -4.1404316148096
  -gammas
  -Isotopes
SOLUTION_RAW       4 
  -temp              25
  -pH                7.4097887023241
  -pe                13.196413090838
  -mu                0.052707619819972
  -ah2o              0.99825013466591
  -total_h           111.02422965811
  -total_o           55.546237529146
  -cb                0.0058766707020963
  -mass_water        0.99999529219208
  -total_alkalinity  0.012409122899087
  -totals
    As   7.0812650455592e-09
    C   0.013222718077007
    Ca   0.00064747066427907
    Cl   0.035952671958666
    Mg   0.0004653353834434
    Na   0.05253142361209
    S   0.00025928153320982
  -activities
    As   -14.194924000734
    C(-4)   -143.51851124043
    C(4)   -4.9226013988176
    Ca   -3.5572284763362
    Cl   -1.5359955182426
    Mg   -3.6875687260285
    Na   -1.3677416959412
    S(-2)   -142.6011034278
    S(6)   -3.9947430313948
  -gammas
  -Isotopes
SOLUTION_RAW       5 
  -temp              25
  -pH                8.1876189689295
  -pe                12.41780139666
  -mu                0.015785556097305
  -ah2o              0.99948096622273
  -total_h           111.01941024716
  -total_o           55.533953120182
  -cb                0.00095969398354591
  -mass_water        0.99998255250554
  -total_alkalinity  0.0091454405696545
  -totals
    As   1.1957646609563e-07
    C   0.0091417147209059
    Ca   0.0001085512225971
    Cl   0.0053214825911359
    Mg   7.7820401270607e-05
    Na   0.015531140452622
    S   0.00023857348977735
  -activities
    As   -14.333010037034
    C(-4)   -144.39399391446
    C(4)   -4.2470694189433
    Ca   -4.2327604562105
    Cl   -2.3296394427209
    Mg   -4.3631007059028
    Na   -1.8649692780916
    S(-2)   -143.24091737429
    S(6)   -3.8608373026976
  -gammas
  -Isotopes
SOLUTION_RAW       6 
  -temp              25
  -pH                8.5225486837113
  -pe                12.082775313389
  -mu                0.011277551955271
  -ah2o              0.99963557707662
  -total_h           111.01869236892
  -total_o           55.532239981098
  -cb                0.00022880778299636
  -mass_water        0.99998145298402
  -total_alkalinity  0.0087340697527722
  -totals
    As   4.720384952687e-07
    C   0.0085718968008534
    Ca   5.2739710500889e-05
    Cl   0.001572960881974
    Mg   3.7021490681296e-05
    Na   0.010828866692682
    S   0.00023603931940436
  -activities
    As   -14.369066034498
    C(-4)   -144.75061569715
    C(4)   -3.9343998911694
    Ca   -4.5454299839844
    Cl   -2.8513085606884
    Mg   -4.6757702336768
    Na   -2.0149140622426
    S(-2)   -143.54415269347
    S(6)   -3.8296432683791
  -gammas
  -Isotopes
SOLUTION_RAW       7 
  -temp              25
  -pH                8.6144453963214
  -pe                11.990867900335
  -mu                0.01074906025506
  -ah2o              0.99965500033928
  -total_h           111.01859187541
  -total_o           55.532092332811
  -cb                0.00012603531858943
  -mass_water        0.99998127148686
  -total_alkalinity  0.0087377495867947
  -totals
    As   6.9310943711856e-07
    C   0.0085226139461688
    Ca   4.3712865961446e-05
    Cl   0.0010678157635478
    Mg   3.0400615005928e-05
    Na   0.01025546246004
    S   0.00023569782180275
  -activities
    As   -14.380768044759
    C(-4)   -144.8456615826
    C(4)   -3.8457139869806
    Ca   -4.6341158881732
    Cl   -3.0185166602894
    Mg   -4.7644561378656
    Na   -2.037797747488
    S(-2)   -143.63169090712
    S(6)   -3.8253385643396
  -gammas
  -Isotopes
SOLUTION_RAW       8 
  -temp              25
  -pH                8.4831491363424
  -pe                12.122130640507
  -mu                0.0093635736414169
  -ah2o              0.99969981662833
  -total_h           111.01835372221
  -total_o           55.531104584812
  -cb                -0.00011396211876742
  -mass_water        0.99998154451452
  -total_alkalinity  0.0083205530568395
  -totals
    As   3.9244767954607e-07
    C   0.008194114561625
    Ca   5.7370665576928e-05
    Cl   0.00024826769781988
    Mg   4.0469049480922e-05
    Na   0.0087298591851766
    S   0.0002351437658604
  -activities
    As   -14.356734602292
    C(-4)   -144.72574087867
    C(4)   -3.988595546954
    Ca   -4.4912343281998
    Cl   -3.64928282258
    Mg   -4.6215745778922
    Na   -2.1047539740775
    S(-2)   -143.49000159286
    S(6)   -3.815135782306
  -gammas
  -Isotopes
SOLUTION_RAW       9 
  -temp              25
  -pH                5.4379978813705
  -pe                15.231800936486
  -mu                4.1652579626204
  -ah2o              0.87525034673241
  -total_h           111.0355007248
  -total_o           55.573405820407
  -cb                0.020773785614596
  -mass_water        1.0001025625109
  -total_alkalinity  0.011679462981256
  -totals
    As   2.1153105885768e-08
    C   0.019162920552947
    Ca   0.23568849489522
    Cl   3.8150369236037
    Mg   0.10554510533261
    Na   3.1706512286597
    S   0.0028141178813462
  -activities
    As   -10.579983095632
    C(-4)   -142.56184909486
    C(4)   -7.5720653358107
    Ca   -0.90776453934311
    Cl   0.3332030989761
    Mg   -1.0381047890355
    Na   0.53076221875952
    S(-2)   -141.06302674846
    S(6)   -4.1481089263857
  -gammas
  -Isotopes
SOLUTION_RAW       10 
  -temp              25
  -pH                5.6877770498799
  -pe                14.952093222414
  -mu                1.9159072859377
  -ah2o              0.94173543012021
  -total_h           111.0576321469
  -total_o           55.609335462228
  -cb                0.043940310725268
  -mass_water        1.0002663910153
  -total_alkalinity  0.015637892380137
  -totals
    As   7.0847187521469e-09
    C   0.033352652627237
    Ca   0.093804556915576
    Cl   1.7420945208031
    Mg   0.052027918586047
    Na   1.5128332051407
    S   0.0014127125753595
  -activities
    As   -11.623673177959
    C(-4)   -142.23658182573
    C(4)   -6.8912786454584
    Ca   -1.5885512296954
    Cl   -0.0024371227437745
    Mg   -1.7188914793878
    Na   0.072373396912535
    S(-2)   -141.22120798401
    S(6)   -4.1687529925855
  -gammas
  -Isotopes
SOLUTION_RAW       11 
  -temp              25
  -pH                6.1454039806297
  -pe                14.47166544632
  -mu                0.6161685646175
  -ah2o              0.98065694288182
  -total_h           111.05141512011
  -total_o           55.59592993858
  -cb                0.034647824740504
  -mass_water        1.0002019052689
  -total_alkalinity  0.016596208126896
  -totals
    As   1.709645974372e-09
    C   0.029546813456502
    Ca   0.022963655239891
    Cl   0.54825965180181
    Mg   0.014845740366025
    Na   0.52509614469456
    S   0.00060562476376434
  -activities
    As   -12.940978430733
    C(-4)   -142.35500983609
    C(4)   -6.2240951300204
    Ca   -2.2557347451334
    Cl   -0.4620526539461
    Mg   -2.3860749948257
    Na   -0.43199069408964
    S(-2)   -141.59754571317
    S(6)   -4.1995178861208
  -gammas
  -Isotopes
SOLUTION_RAW       12 
  -temp              25
  -pH                6.7010104421814
  -pe                13.907672373424
  -mu                0.17704380595246
  -ah2o              0.99424172430311
  -total_h           111.03436502688
  -total_o           55.566338094634
  -cb                0.016360991352848
  -mass_water        1.0000602399466
  -total_alkalinity  0.015289812545883
  -totals
    As   1.414631011226e-09
    C   0.019871557315479
    Ca   0.0042275789722067
    Cl   0.14719777817236
    Mg   0.0029466705020661
    Na   0.16516906120729
    S   0.00033448833505561
  -activities
    As   -13.795026632618
    C(-4)   -142.79329248279
    C(4)   -5.6003331268339
    Ca   -2.8794967483199
    Cl   -0.9739239995842
    Mg   -3.0098369980123
    Na   -0.90889642455759
    S(-2)   -142.04518336267
    S(6)   -4.1347425929956
  -gammas
  -Isotopes
SOLUTION_RAW       13 
  -temp              25
  -pH                7.4454795758791
  -pe                13.160600901317
  -mu                0.047214509016824
  -ah2o              0.99843648169509
  -total_h           111.02326408747
  -total_o           55.543624530577
  -cb                0.0048972391998202
  -mass_water        0.99999343471405
  -total_alkalinity  0.011647694315723
  -totals
    As   7.7947224432587e-09
    C   0.012353567018695
    Ca   0.00061108045389886
    Cl   0.031727702110385
    Mg   0.00044000028513881
    Na   0.046683332477497
    S   0.00025642526746079
  -activities
    As   -14.207168018562
    C(-4)   -143.57702034993
    C(4)   -4.9104560568888
    Ca   -3.569373818265
    Cl   -1.5864056618454
    Mg   -3.6997140679573
    Na   -1.4155904145003
    S(-2)   -142.62370915458
    S(6)   -3.9823040144285
  -gammas
  -Isotopes
SOLUTION_RAW       14 
  -temp              25
  -pH                8.057456954181
  -pe                12.547941054866
  -mu                0.014885594854659
  -ah2o              0.99951274120377
  -total_h           111.01923350431
  -total_o           55.533213604612
  -cb                0.00078132733414487
  -mass_water        0.99998322209584
  -total_alkalinity  0.0088311199242377
  -totals
    As   6.8668651731062e-08
    C   0.0088955079072157
    Ca   0.00014643327060659
    Cl   0.0047866666742814
    Mg   0.00010562887489792
    Na   0.014371482221339
    S   0.00023821195551596
  -activities
    As   -14.314251828765
    C(-4)   -144.27484328895
    C(4)   -4.3883802640445
    Ca   -4.0914496111093
    Cl   -2.3742342190654
    Mg   -4.2217898608017
    Na   -1.8972079330132
    S(-2)   -143.1070985907
    S(6)   -3.8573041720492
  -gammas
  -Isotopes
SOLUTION_RAW       15 
  -temp              25
  -pH                8.3959312688925
  -pe                12.209365977274
  -mu                0.010167046469978
  -ah2o              0.99967189938703
  -total_h           111.01851094848
  -total_o           55.531465458768
  -cb                4.5762910749847e-05
  -mass_water        0.99998176708776
  -total_alkalinity  0.0084016716377921
  -totals
    As   2.7316239182787e-07
    C   0.0083142795611287
    Ca   6.8942488902034e-05
    Cl   0.00090066770224537
    Mg   4.895453452124e-05
    Na   0.0095837510321398
    S   0.00023558483290358
  -activities
    As   -14.34788208346
    C(-4)   -144.63314056971
    C(4)   -4.0703264281572
    Ca   -4.4095034469966
    Cl   -3.0912966885192
    Mg   -4.539843696689
    Na   -2.0656550650176
    S(-2)   -143.40988787247
    S(6)   -3.8221470327425
  -gammas
  -Isotopes
SOLUTION_RAW       16 
  -temp              25
  -pH                8.4385364003856
  -pe                12.166748062168
  -mu                0.0095854600189784
  -ah2o              0.99969189511255
  -total_h           111.01840392112
  -total_o           55.531193424589
  -cb                -6.2919848075283e-05
  -mass_water        0.99998165301925
  -total_alkalinity  0.0083289327742461
  -totals
    As   3.254569737841e-07
    C   0.0082237335255761
    Ca   6.2981215524376e-05
    Cl   0.00044198514033814
    Mg   4.458868793676e-05
    Na   0.0089637331818065
    S   0.00023527473262301
  -activities
    As   -14.351513066241
    C(-4)   -144.67955507441
    C(4)   -4.0316080521479
    Ca   -4.4482218230059
    Cl   -3.3992616779593
    Mg   -4.5785620726983
    Na   -2.0936366688756
    S(-2)   -143.44752570772
    S(6)   -3.8172489117457
  -gammas
  -Isotopes
SOLUTION_RAW       17 
  -temp              25
  -pH                8.3583055756276
  -pe                12.246967903846
  -mu                0.0091370809520919
  -ah2o              0.99970663007079
  -total_h           111.01833526474
  -total_o           55.530863482797
  -cb                -0.00013215562370141
  -mass_water        0.99998187257883
  -total_alkalinity  0.0081786237198789
  -totals
    As   2.2991003813038e-07
    C   0.0081139919360946
    Ca   7.4751945255954e-05
    Cl   0.00018196446376299
    Mg   5.3258171114407e-05
    Na   0.0084428401209702
    S   0.00023509894186619
  -activities
    As   -14.340408888828
    C(-4)   -144.60341495891
    C(4)   -4.1159978971543
    Ca   -4.3638319779995
    Cl   -3.7837337225741
    Mg   -4.4941722276919
    Na   -2.1185999295373
    S(-2)   -143.36423155601
    S(6)   -3.8142473446057
  -gammas
  -Isotopes
SOLUTION_RAW       18 
  -temp              25
  -pH                5.4446288012494
  -pe                15.222840949196
  -mu                3.9302117220766
  -ah2o              0.88218155976869
  -total_h           111.03819980119
  -total_o           55.578228117094
  -cb                0.023815469441472
  -mass_water        1.0001216339291
  -total_alkalinity  0.012262178022217
  -totals
    As   2.042422251905e-08
    C   0.021040652325051
    Ca   0.22013428004418
    Cl   3.5984659748447
    Mg   0.10065379502652
    Na   2.9983029042514
    S   0.0026677058301314
  -activities
    As   -10.634937774431
    C(-4)   -142.50423569885
    C(4)   -7.5095456164459
    Ca   -0.97028425870789
    Cl   0.30700118742455
    Mg   -1.1006245084002
    Na   0.49105939871888
    S(-2)   -141.06387264061
    S(6)   -4.1472537125306
  -gammas
  -Isotopes
SOLUTION_RAW       19 
  -temp              25
  -pH                5.7263737914654
  -pe                14.91082417625
  -mu                1.7542077332775
  -ah2o              0.94655562343009
  -total_h           111.05772649992
  -total_o           55.608901569274
  -cb                0.043684615806479
  -mass_water        1.0002667832873
  -total_alkalinity  0.015690269656073
  -totals
    As   6.0925298434745e-09
    C   0.033295954671974
    Ca   0.084479451318413
    Cl   1.5935065635352
    Mg   0.047663954040758
    Na   1.3912191647478
    S   0.0013122601879254
  -activities
    As   -11.752541997375
    C(-4)   -142.2384700062
    C(4)   -6.83070013332
    Ca   -1.6491297418338
    Cl   -0.038926685606638
    Mg   -1.7794699915261
    Na   0.027738075460214
    S(-2)   -141.25142374959
    S(6)   -4.1728815574506
  -gammas
  -Isotopes
SOLUTION_RAW       20 
  -temp              25
  -pH                6.1738558494121
  -pe                14.442597345826
  -mu                0.58397582655832
  -ah2o              0.9816613720653
  -total_h           111.04936660834
  -total_o           55.592092045517
  -cb                0.032481421915573
  -mass_water        1.0001869897571
  -total_alkalinity  0.016204004583107
  -totals
    As   1.647647769589e-09
    C   0.028276226363609
    Ca   0.021594018466322
    Cl   0.51945159056306
    Mg   0.014025799851591
    Na   0.49806968039093
    S   0.00058614915868474
  -activities
    As   -12.996322508191
    C(-4)   -142.38464092726
    C(4)   -6.200418554359
    Ca   -2.2794113207948
    Cl   -0.48300737894428
    Mg   -2.4097515704872
    Na   -0.45474286860901
    S(-2)   -141.62247235457
    S(6)   -4.1991441359647
  -gammas
  -Isotopes
SOLUTION_RAW       21 
  -temp              25
  -pH                6.7085978242233
  -pe                13.900039108781
  -mu                0.17531722867677
  -ah2o              0.99430934356217
  -total_h           111.03340665349
  -total_o           55.564121774263
  -cb                0.015395603306743
  -mass_water        1.0000562242876
  -total_alkalinity  0.014776486161446
  -totals
    As   1.4307983074383e-09
    C   0.019132460024478
    Ca   0.0042755501551369
    Cl   0.14633913432678
    Mg   0.0029814124180055
    Na   0.1626651157956
    S   0.00033390785805919
  -activities
    As   -13.801283045171
    C(-4)   -142.81502574853
    C(4)   -5.6071700825773
    Ca   -2.8726597925765
    Cl   -0.97601219187923
    Mg   -3.0030000422689
    Na   -0.915164158709
    S(-2)   -142.05173800115
    S(6)   -4.1339587600664
  -gammas
  -Isotopes
SOLUTION_RAW       22 
  -temp              25
  -pH                7.4162392198136
  -pe                13.189856446386
  -mu                0.04823991901937
  -ah2o              0.99840597148332
  -total_h           111.02307845648
  -total_o           55.542969787166
  -cb                0.004715131278939
  -mass_water        0.99999400685282
  -total_alkalinity  0.011392740746819
  -totals
    As   7.041267037731e-09
    C   0.012134649733245
    Ca   0.00067139792106522
    Cl   0.033004956231474
    Mg   0.00048345601590917
    Na   0.047317704963197
    S   0.00025728876932338
  -activities
    As   -14.199769682671
    C(-4)   -143.55825981325
    C(4)   -4.9500945341695
    Ca   -3.5297353409843
    Cl   -1.5700137045613
    Mg   -3.6600755906766
    Na   -1.4103161384653
    S(-2)   -142.59757469236
    S(6)   -3.9853414704418
  -gammas
  -Isotopes
SOLUTION_RAW       23 
  -temp              25
  -pH                8.0006143452008
  -pe                12.604808222054
  -mu                0.016089997005291
  -ah2o              0.99947272105905
  -total_h           111.01934560314
  -total_o           55.53347180957
  -cb                0.00089676853028522
  -mass_water        0.99998358964996
  -total_alkalinity  0.0088875077684214
  -totals
    As   5.4854913576508e-08
    C   0.0089810920596418
    Ca   0.00016782502059928
    Cl   0.0058560929463146
    Mg   0.00012123594526855
    Na   0.015540172059086
    S   0.00023893494544363
  -activities
    As   -14.308003429474
    C(-4)   -144.21652947907
    C(4)   -4.4436083428054
    Ca   -4.0362215323484
    Cl   -2.2885283732579
    Mg   -4.1665617820407
    Na   -1.8649392205148
    S(-2)   -143.05797872258
    S(6)   -3.8649010122002
  -gammas
  -Isotopes
SOLUTION_RAW       24 
  -temp              25
  -pH                8.4677376570267
  -pe                12.13754757982
  -mu                0.0096080968668519
  -ah2o              0.99969138849674
  -total_h           111.01840127864
  -total_o           55.531230101047
  -cb                -6.5705322407163e-05
  -mass_water        0.99998158065715
  -total_alkalinity  0.0083560148716557
  -totals
    As   3.6857250021945e-07
    C   0.0082359055492432
    Ca   5.9237449506507e-05
    Cl   0.00043563832769393
    Mg   4.1835523043656e-05
    Na   0.008994711414985
    S   0.00023527045532132
  -activities
    As   -14.355431753474
    C(-4)   -144.70850993865
    C(4)   -4.002154867899
    Ca   -4.4776750072549
    Cl   -3.4055904319501
    Mg   -4.6080152569472
    Na   -2.0922361346658
    S(-2)   -143.47670649904
    S(6)   -3.8172231308662
  -gammas
  -Isotopes
SOLUTION_RAW       25 
  -temp              25
  -pH                8.4512256023768
  -pe                12.154051719552
  -mu                0.0092705032881689
  -ah2o              0.99970266162722
  -total_h           111.01834173495
  -total_o           55.531017766679
  -cb                -0.00012592297618058
  -mass_water        0.99998162056719
  -total_alkalinity  0.0082748287458762
  -totals
    As   3.4226241062096e-07
    C   0.0081652582518306
    Ca   6.1349737249825e-05
    Cl   0.00021084852812882
    Mg   4.3397622431816e-05
    Na   0.0086208387834889
    S   0.00023511847130853
  -activities
    As   -14.352232134664
    C(-4)   -144.69472544245
    C(4)   -4.0214431033617
    Ca   -4.4583867717921
    Cl   -3.7200349379753
    Mg   -4.5887270214845
    Na   -2.1099628440629
    S(-2)   -143.45751626971
    S(6)   -3.8145886793968
  -gammas
  -Isotopes
SOLUTION_RAW       26 
  -temp              25
  -pH                8.362851509618
  -pe                12.242420962991
  -mu                0.0090925518092805
  -ah2o              0.99970815534272
  -total_h           111.0183250286
  -total_o           55.530838038403
  -cb                -0.00014251607613743
  -mass_water        0.99998185864893
  -total_alkalinity  0.0081720131476299
  -totals
    As   2.3423044843847e-07
    C   0.0081055185163002
    Ca   7.4037607384828e-05
    Cl   0.00014908619551656
    Mg   5.273430795795e-05
    Na   0.0083954270941516
    S   0.00023507671368987
  -activities
    As   -14.340929007456
    C(-4)   -144.6083346481
    C(4)   -4.1118314630492
    Ca   -4.3679984121047
    Cl   -3.8701870840117
    Mg   -4.498338661797
    Na   -2.120960480623
    S(-2)   -143.36835942102
    S(6)   -3.813834266715
  -gammas
  -Isotopes
SOLUTION_RAW       27 
  -temp              25
  -pH                5.4526958622272
  -pe                15.212035967284
  -mu                3.6788888140096
  -ah2o              0.88957498857256
  -total_h           111.04161371546
  -total_o           55.584351678474
  -cb                0.027648354228821
  -mass_water        1.0001460437907
  -total_alkalinity  0.012967243190725
  -totals
    As   1.9471635474443e-08
    C   0.023379728085215
    Ca   0.20349988015223
    Cl   3.3667982379641
    Mg   0.095162551189242
    Na   2.8151111675093
    S   0.0025110876684749
  -activities
    As   -10.699014112366
    C(-4)   -142.44056466187
    C(4)   -7.4407700681578
    Ca   -1.039059806996
    Cl   0.27744498383119
    Mg   -1.1694000566884
    Na   0.44736174522308
    S(-2)   -141.06420609096
    S(6)   -4.1469251159687
  -gammas
  -Isotopes
SOLUTION_RAW       28 
  -temp              25
  -pH                5.7437000393409
  -pe                14.891957936766
  -mu                1.661625152861
  -ah2o              0.949288786387
  -total_h           111.05897852691
  -total_o           55.610919007942
  -cb                0.04481135713174
  -mass_water        1.0002754294717
  -total_alkalinity  0.015983360996133
  -totals
    As   5.6196635992587e-09
    C   0.034031751605832
    Ca   0.079001751921516
    Cl   1.5079764668713
    Mg   0.045014122002188
    Na   1.3232483184918
    S   0.0012544378601606
  -activities
    As   -11.819044825352
    C(-4)   -142.2271242416
    C(4)   -6.7932651900374
    Ca   -1.6865646851164
    Cl   -0.061395161365294
    Mg   -1.8169049348087
    Na   0.0014376085085157
    S(-2)   -141.26384954515
    S(6)   -4.175292203921
  -gammas
  -Isotopes
SOLUTION_RAW       29 
  -temp              25
  -pH                6.1610200752965
  -pe                14.455695519871
  -mu                0.59753163474326
  -ah2o              0.98122957978319
  -total_h           111.05048297302
  -total_o           55.594233688237
  -cb                0.033659266392538
  -mass_water        1.0001947570746
  -total_alkalinity  0.016457965404109
  -totals
    As   1.6726955543346e-09
    C   0.028988479229109
    Ca   0.022086051527252
    Cl   0.53151423016505
    Mg   0.014316883273149
    Na   0.51001420215199
    S   0.00059430405920346
  -activities
    As   -12.972100828856
    C(-4)   -142.36884559235
    C(4)   -6.2087687785543
    Ca   -2.2710610965995
    Cl   -0.4741040846147
    Mg   -2.4014013462919
    Na   -0.44455899976753
    S(-2)   -141.61098980269
    S(6)   -4.1991624388254
  -gammas
  -Isotopes
SOLUTION_RAW       30 
  -temp              25
  -pH                6.6417303517611
  -pe                13.967429816976
  -mu                0.20159016090456
  -ah2o              0.99346398013006
  -total_h           111.03562173305
  -total_o           55.568541375797
  -cb                0.017692913068684
  -mass_water        1.0000703586247
  -total_alkalinity  0.015421089102823
  -totals
    As   1.3480651567741e-09
    C   0.020596338053717
    Ca   0.0050632557048042
    Cl   0.16973105890826
    Mg   0.0035105216187094
    Na   0.18639695154607
    S   0.00034972188263343
  -activities
    As   -13.732630481666
    C(-4)   -142.74141821773
    C(4)   -5.6642197909183
    Ca   -2.8156100842355
    Cl   -0.91809168040748
    Mg   -2.9459503339279
    Na   -0.86031977693125
    S(-2)   -141.99974654152
    S(6)   -4.1461264501793
  -gammas
  -Isotopes
SOLUTION_RAW       31 
  -temp              25
  -pH                7.2714616999431
  -pe                13.334960124946
  -mu                0.063916915818713
  -ah2o              0.99788701046361
  -total_h           111.02489296
  -total_o           55.547384697985
  -cb                0.0065741701449526
  -mass_water        1.0000005433477
  -total_alkalinity  0.012473641605368
  -totals
    As   4.6167274786442e-09
    C   0.013600582930348
    Ca   0.00094255926255407
    Cl   0.046340980478292
    Mg   0.00067568473075826
    Na   0.062684917935025
    S   0.00026630453815473
  -activities
    As   -14.14994184825
    C(-4)   -143.38676055304
    C(4)   -5.0662168956348
    Ca   -3.4136129795191
    Cl   -1.4328517829645
    Mg   -3.5439532292114
    Na   -1.2968919195292
    S(-2)   -142.48797515931
    S(6)   -4.0188128266457
  -gammas
  -Isotopes
SOLUTION_RAW       32 
  -temp              25
  -pH                8.3653720334331
  -pe                12.239976123839
  -mu                0.01252001563755
  -ah2o              0.99959198775851
  -total_h           111.01881554249
  -total_o           55.532382632808
  -cb                0.00035652458409381
  -mass_water        0.99998184426097
  -total_alkalinity  0.0087018939773834
  -totals
    As   2.4550847580307e-07
    C   0.0086191822948948
    Ca   7.4214467763306e-05
    Cl   0.002803299829082
    Mg   5.275984310937e-05
    Na   0.012081757510588
    S   0.00023687111664923
  -activities
    As   -14.3505528849
    C(-4)   -144.5917324027
    C(4)   -4.0897347732108
    Ca   -4.390095101943
    Cl   -2.6026298282236
    Mg   -4.5204353516353
    Na   -1.969204138803
    S(-2)   -143.39651639142
    S(6)   -3.8390680269961
  -gammas
  -Isotopes
SOLUTION_RAW       33 
  -temp              25
  -pH                8.4664265951784
  -pe                12.138862994419
  -mu                0.0098077577193212
  -ah2o              0.99968461852089
  -total_h           111.01842771257
  -total_o           55.531312305656
  -cb                -3.8760959214207e-05
  -mass_water        0.99998158236547
  -total_alkalinity  0.0083838306211487
  -totals