#PHAST restart file
#Prefix: print_check_ss
#Date: Thu May 18 09:18:29 2006
#Current model time: 31000
#nx, ny, nz: 16, 9, 3
SOLUTION_RAW       -2 
  -temp              25
  -pH                7
  -pe                4
  -mu                1e-07
  -ah2o              1
  -total_h           111.05057778704
  -total_o           55.594726828086
  -cb                0.03380495590624
  -mass_water        1
  -total_alkalinity  0
  -totals
    As   3.1008176834434e-09
    C   0.02917373386581
    Ca   0.021817174063474
    Cl   0.51892109182918
    Mg   0.013989715980813
    Na   0.49895901715898
    S   0.00058579044192305
  -activities
    As   -10.508523767914
    C(-4)   -3.5350079831669
    C(4)   -3.5350079831669
    Ca   -3.6612015034324
    Cl   -2.2848986768116
    Mg   -3.8541911024644
    Na   -2.301935124422
    S(-2)   -5.2322577187827
    S(6)   -5.2322577187827
  -gammas
  -Isotopes
SOLUTION_RAW       0 Solution after simulation 4.
  -temp              25
  -pH                5.4364963525335
  -pe                15.234423738628
  -mu                4.2884819640101
  -ah2o              0.87161386937858
  -total_h           111.03411760662
  -total_o           55.570898186492
  -cb                0.019210845664708
  -mass_water        1.0000930153105
  -total_alkalinity  0.011355850499237
  -totals
    As   2.1396346752372e-08
    C   0.018185284063309
    Ca   0.24385179490024
    Cl   3.9285939205744
    Mg   0.10802795457926
    Na   3.2611829147044
    S   0.0028908877643958
  -activities
    As   -10.556126517348
    C(-4)   -142.59461076071
    C(4)   -7.6042843294025
    Ca   -0.87554554575129
    Cl   0.34644389400492
    Mg   -1.0058857954436
    Na   0.55113781181129
    S(-2)   -141.06393247491
    S(6)   -4.1487786233966
  -gammas
  -Isotopes
SOLUTION_RAW       1 Solution after simulation 4.
  -temp              25
  -pH                5.6628781347708
  -pe                14.978697485001
  -mu                2.0206498079819
  -ah2o              0.93860981792459
  -total_h           111.05773030246
  -total_o           55.609949409274
  -cb                0.044280106549049
  -mass_water        1.0002670959656
  -total_alkalinity  0.015656794255996
  -totals
    As   7.7985790213292e-09
    C   0.033502902503226
    Ca   0.0998771380175
    Cl   1.8382645897635
    Mg   0.054793168482721
    Na   1.5918163415237
    S   0.0014777280785504
  -activities
    As   -11.541333733893
    C(-4)   -142.23366800071
    C(4)   -6.9288512871658
    Ca   -1.550978587988
    Cl   0.019682847480548
    Mg   -1.6813188376804
    Na   0.100005638522
    S(-2)   -141.20166391153
    S(6)   -4.1662403058624
  -gammas
  -Isotopes
SOLUTION_RAW       2 Solution after simulation 4.
  -temp              25
  -pH                6.1170626572095
  -pe                14.500686333895
  -mu                0.65194016496341
  -ah2o              0.97954560726741
  -total_h           111.05336877472
  -total_o           55.599556580553
  -cb                0.036725946281976
  -mass_water        1.0002164611312
  -total_alkalinity  0.016933415977819
  -totals
    As   1.7853593608642e-09
    C   0.030744733403249
    Ca   0.024518745631216
    Cl   0.58046661942316
    Mg   0.015770368480017
    Na   0.55480255167545
    S   0.0006273982148011
  -activities
    As   -12.882855967064
    C(-4)   -142.32798434619
    C(4)   -6.2497931107241
    Ca   -2.2300367644297
    Cl   -0.43985174790266
    Mg   -2.360377014122
    Na   -0.40814487396645
    S(-2)   -141.57277745923
    S(6)   -4.199624224168
  -gammas
  -Isotopes
SOLUTION_RAW       3 Solution after simulation 4.
  -temp              25
  -pH                6.667999214673
  -pe                13.940929478041
  -mu                0.18894584095999
  -ah2o              0.99384869564262
  -total_h           111.03600887595
  -total_o           55.569825415556
  -cb                0.018040368460099
  -mass_water        1.0000692496487
  -total_alkalinity  0.01593339626787
  -totals
    As   1.368450550867e-09
    C   0.021029984132304
    Ca   0.0045007211816455
    Cl   0.15728988864051
    Mg   0.0031287401594523
    Na   0.17668735422439
    S   0.00034131108482877
  -activities
    As   -13.762491390127
    C(-4)   -142.7477029218
    C(4)   -5.619314139228
    Ca   -2.8605157359258
    Cl   -0.94813535446035
    Mg   -2.9908559856181
    Na   -0.88168048101819
    S(-2)   -142.01914132825
    S(6)   -4.1404316148096
  -gammas
  -Isotopes
SOLUTION_RAW       4 Solution after simulation 4.
  -temp              25
  -pH                7.4097887023248
  -pe                13.196413090838
  -mu                0.052707619819946
  -ah2o              0.99825013466591
  -total_h           111.02422965811
  -total_o           55.546237529146
  -cb                0.0058766707020757
  -mass_water        0.99999529219208
  -total_alkalinity  0.012409122899071
  -totals
    As   7.0812650455749e-09
    C   0.013222718076989
    Ca   0.00064747066427876
    Cl   0.035952671958666
    Mg   0.00046533538344319
    Na   0.052531423612054
    S   0.00025928153320982
  -activities
    As   -14.194924000734
    C(-4)   -143.51851124043
    C(4)   -4.9226013988175
    Ca   -3.5572284763363
    Cl   -1.5359955182425
    Mg   -3.6875687260287
    Na   -1.3677416959415
    S(-2)   -142.60110342781
    S(6)   -3.9947430313947
  -gammas
  -Isotopes
SOLUTION_RAW       5 Solution after simulation 4.
  -temp              25
  -pH                8.1876189689263
  -pe                12.417801396661
  -mu                0.015785556097332
  -ah2o              0.99948096622273
  -total_h           111.01941024716
  -total_o           55.533953120182
  -cb                0.0009596939835584
  -mass_water        0.99998255250554
  -total_alkalinity  0.0091454405696754
  -totals
    As   1.1957646609407e-07
    C   0.0091417147209283
    Ca   0.00010855122259766
    Cl   0.0053214825911359
    Mg   7.7820401271015e-05
    Na   0.015531140452653
    S   0.00023857348977735
  -activities
    As   -14.333010037033
    C(-4)   -144.39399391444
    C(4)   -4.2470694189455
    Ca   -4.2327604562083
    Cl   -2.3296394427209
    Mg   -4.3631007059007
    Na   -1.8649692780907
    S(-2)   -143.24091737427
    S(6)   -3.8608373026978
  -gammas
  -Isotopes
SOLUTION_RAW       6 Solution after simulation 4.
  -temp              25
  -pH                8.5225486825389
  -pe                12.082775314563
  -mu                0.011277551953482
  -ah2o              0.99963557707666
  -total_h           111.01869236892
  -total_o           55.532239981095
  -cb                0.00022880778286168
  -mass_water        0.99998145298402
  -total_alkalinity  0.0087340697512887
  -totals
    As   4.7203849292218e-07
    C   0.008571896800073
    Ca   5.2739710628687e-05
    Cl   0.001572960881974
    Mg   3.7021490775197e-05
    Na   0.010828866690618
    S   0.00023603931940438
  -activities
    As   -14.36906603432
    C(-4)   -144.75061596985
    C(4)   -3.9343998923578
    Ca   -4.545429982796
    Cl   -2.851308560685
    Mg   -4.6757702324883
    Na   -2.0149140623196
    S(-2)   -143.54415308887
    S(6)   -3.8296432683722
  -gammas
  -Isotopes
SOLUTION_RAW       7 Solution after simulation 4.
  -temp              25
  -pH                8.6144453961389
  -pe                11.990867900518
  -mu                0.010749060255391
  -ah2o              0.99965500033927
  -total_h           111.01859187541
  -total_o           55.532092332812
  -cb                0.0001260353188819
  -mass_water        0.99998127148686
  -total_alkalinity  0.0087377495870329
  -totals
    As   6.9310943658595e-07
    C   0.0085226139465159
    Ca   4.3712865975921e-05
    Cl   0.001067815763548
    Mg   3.0400615016551e-05
    Na   0.010255462460521
    S   0.00023569782180339
  -activities
    As   -14.380768044733
    C(-4)   -144.84566159702
    C(4)   -3.8457139871419
    Ca   -4.6341158880119
    Cl   -3.01851666029
    Mg   -4.7644561377043
    Na   -2.0377977474679
    S(-2)   -143.63169092874
    S(6)   -3.8253385643423
  -gammas
  -Isotopes
SOLUTION_RAW       8 Solution after simulation 4.
  -temp              25
  -pH                8.4831491461035
  -pe                12.122130630747
  -mu                0.0093635736555478
  -ah2o              0.99969981662796
  -total_h           111.01835372221
  -total_o           55.531104584832
  -cb                -0.00011396211721136
  -mass_water        0.9999815445145
  -total_alkalinity  0.0083205530687898
  -totals
    As   3.9244769589292e-07
    C   0.0081941145683948
    Ca   5.7370664402365e-05
    Cl   0.00024826769781989
    Mg   4.0469048616823e-05
    Na   0.0087298592027769
    S   0.00023514376586054
  -activities
    As   -14.356734603641
    C(-4)   -144.72574088786
    C(4)   -3.9885955369971
    Ca   -4.4912343381567
    Cl   -3.6492828226098
    Mg   -4.6215745878491
    Na   -2.1047539732496
    S(-2)   -143.49000160214
    S(6)   -3.8151357823594
  -gammas
  -Isotopes
SOLUTION_RAW       9 Solution after simulation 4.
  -temp              25
  -pH                5.4379978813705
  -pe                15.231800936492
  -mu                4.1652579626204
  -ah2o              0.87525034673241
  -total_h           111.0355007248
  -total_o           55.573405820407
  -cb                0.020773785614595
  -mass_water        1.0001025625109
  -total_alkalinity  0.011679462981254
  -totals
    As   2.1153105885765e-08
    C   0.019162920552943
    Ca   0.23568849489522
    Cl   3.8150369236037
    Mg   0.10554510533261
    Na   3.1706512286597
    S   0.0028141178813462
  -activities
    As   -10.579983095633
    C(-4)   -142.56184909491
    C(4)   -7.5720653358107
    Ca   -0.9077645393431
    Cl   0.3332030989761
    Mg   -1.0381047890355
    Na   0.53076221875952
    S(-2)   -141.06302674851
    S(6)   -4.1481089263857
  -gammas
  -Isotopes
SOLUTION_RAW       10 Solution after simulation 4.
  -temp              25
  -pH                5.68777704988
  -pe                14.952093222416
  -mu                1.9159072859377
  -ah2o              0.94173543012021
  -total_h           111.0576321469
  -total_o           55.609335462228
  -cb                0.043940310725248
  -mass_water        1.0002663910153
  -total_alkalinity  0.015637892380132
  -totals
    As   7.0847187521463e-09
    C   0.033352652627222
    Ca   0.093804556915579
    Cl   1.7420945208031
    Mg   0.052027918586049
    Na   1.5128332051406
    S   0.0014127125753595
  -activities
    As   -11.623673177959
    C(-4)   -142.23658182575
    C(4)   -6.8912786454584
    Ca   -1.5885512296954
    Cl   -0.0024371227437746
    Mg   -1.7188914793877
    Na   0.072373396912525
    S(-2)   -141.22120798403
    S(6)   -4.1687529925855
  -gammas
  -Isotopes
SOLUTION_RAW       11 Solution after simulation 4.
  -temp              25
  -pH                6.1454039806299
  -pe                14.471665446318
  -mu                0.61616856461748
  -ah2o              0.98065694288182
  -total_h           111.05141512011
  -total_o           55.59592993858
  -cb                0.034647824740468
  -mass_water        1.0002019052689
  -total_alkalinity  0.016596208126884
  -totals
    As   1.7096459743722e-09
    C   0.029546813456473
    Ca   0.022963655239893
    Cl   0.54825965180181
    Mg   0.014845740366026
    Na   0.5250961446945
    S   0.00060562476376432
  -activities
    As   -12.940978430733
    C(-4)   -142.35500983609
    C(4)   -6.2240951300205
    Ca   -2.2557347451333
    Cl   -0.4620526539461
    Mg   -2.3860749948257
    Na   -0.43199069408968
    S(-2)   -141.59754571316
    S(6)   -4.1995178861208
  -gammas
  -Isotopes
SOLUTION_RAW       12 Solution after simulation 4.
  -temp              25
  -pH                6.7010104421819
  -pe                13.907672373426
  -mu                0.17704380595243
  -ah2o              0.99424172430311
  -total_h           111.03436502688
  -total_o           55.566338094634
  -cb                0.016360991352811
  -mass_water        1.0000602399466
  -total_alkalinity  0.015289812545862
  -totals
    As   1.4146310112272e-09
    C   0.019871557315446
    Ca   0.0042275789722068
    Cl   0.14719777817236
    Mg   0.0029466705020662
    Na   0.16516906120723
    S   0.0003344883350556
  -activities
    As   -13.795026632618
    C(-4)   -142.79329248281
    C(4)   -5.600333126834
    Ca   -2.8794967483199
    Cl   -0.97392399958419
    Mg   -3.0098369980122
    Na   -0.90889642455773
    S(-2)   -142.04518336269
    S(6)   -4.1347425929955
  -gammas
  -Isotopes
SOLUTION_RAW       13 Solution after simulation 4.
  -temp              25
  -pH                7.4454795758791
  -pe                13.16060090132
  -mu                0.04721450901681
  -ah2o              0.99843648169509
  -total_h           111.02326408747
  -total_o           55.543624530577
  -cb                0.0048972391998069
  -mass_water        0.99999343471405
  -total_alkalinity  0.011647694315716
  -totals
    As   7.7947224432573e-09
    C   0.012353567018687
    Ca   0.00061108045389918
    Cl   0.031727702110385
    Mg   0.00044000028513905
    Na   0.046683332477475
    S   0.00025642526746079
  -activities
    As   -14.207168018562
    C(-4)   -143.57702034995
    C(4)   -4.9104560568891
    Ca   -3.5693738182647
    Cl   -1.5864056618454
    Mg   -3.6997140679571
    Na   -1.4155904145005
    S(-2)   -142.6237091546
    S(6)   -3.9823040144284
  -gammas
  -Isotopes
SOLUTION_RAW       14 Solution after simulation 4.
  -temp              25
  -pH                8.0574569542034
  -pe                12.547941054842
  -mu                0.014885594854727
  -ah2o              0.99951274120377
  -total_h           111.01923350431
  -total_o           55.533213604612
  -cb                0.00078132733417025
  -mass_water        0.99998322209584
  -total_alkalinity  0.0088311199243016
  -totals
    As   6.8668651737523e-08
    C   0.0088955079072682
    Ca   0.00014643327059865
    Cl   0.0047866666742814
    Mg   0.0001056288748921
    Na   0.014371482221455
    S   0.00023821195551596
  -activities
    As   -14.314251828768
    C(-4)   -144.27484328886
    C(4)   -4.3883802640195
    Ca   -4.0914496111343
    Cl   -2.3742342190655
    Mg   -4.2217898608266
    Na   -1.8972079330098
    S(-2)   -143.10709859057
    S(6)   -3.8573041720493
  -gammas
  -Isotopes
SOLUTION_RAW       15 Solution after simulation 4.
  -temp              25
  -pH                8.3959312675611
  -pe                12.209365978607
  -mu                0.0101670464712
  -ah2o              0.99967189938698
  -total_h           111.01851094848
  -total_o           55.531465458771
  -cb                4.5762912421991e-05
  -mass_water        0.99998176708776
  -total_alkalinity  0.0084016716382254
  -totals
    As   2.7316239028773e-07
    C   0.0083142795621931
    Ca   6.894248908872e-05
    Cl   0.00090066770224528
    Mg   4.8954534658377e-05
    Na   0.0095837510335889
    S   0.00023558483290004
  -activities
    As   -14.347882083288
    C(-4)   -144.63314039932
    C(4)   -4.0703264294244
    Ca   -4.4095034457294
    Cl   -3.0912966885217
    Mg   -4.5398436954218
    Na   -2.0656550649524
    S(-2)   -143.40988775331
    S(6)   -3.8221470327716
  -gammas
  -Isotopes
SOLUTION_RAW       16 Solution after simulation 4.
  -temp              25
  -pH                8.4385363988377
  -pe                12.166748063715
  -mu                0.0095854600180046
  -ah2o              0.99969189511257
  -total_h           111.01840392112
  -total_o           55.531193424588
  -cb                -6.2919847638149e-05
  -mass_water        0.99998165301925
  -total_alkalinity  0.0083289327732029
  -totals
    As   3.2545697164025e-07
    C   0.0082237335253051
    Ca   6.2981215727582e-05
    Cl   0.00044198514033812
    Mg   4.4588688086185e-05
    Na   0.0089637331804946
    S   0.00023527473262379
  -activities
    As   -14.351513066033
    C(-4)   -144.67955507285
    C(4)   -4.0316080536913
    Ca   -4.4482218214625
    Cl   -3.3992616779573
    Mg   -4.5785620711549
    Na   -2.0936366689347
    S(-2)   -143.44752570617
    S(6)   -3.8172489117485
  -gammas
  -Isotopes
SOLUTION_RAW       17 Solution after simulation 4.
  -temp              25
  -pH                8.3583055773619
  -pe                12.246967902111
  -mu                0.0091370809536187
  -ah2o              0.99970663007075
  -total_h           111.01833526474
  -total_o           55.530863482799
  -cb                -0.00013215562375548
  -mass_water        0.99998187257882
  -total_alkalinity  0.0081786237214095
  -totals
    As   2.2991003983379e-07
    C   0.0081139919368264
    Ca   7.4751944977594e-05
    Cl   0.00018196446376298
    Mg   5.3258170909629e-05
    Na   0.0084428401234149
    S   0.00023509894186626
  -activities
    As   -14.340408889043
    C(-4)   -144.60341552657
    C(4)   -4.1159978953945
    Ca   -4.3638319797594
    Cl   -3.7837337225774
    Mg   -4.4941722294517
    Na   -2.1185999294173
    S(-2)   -143.36423231483
    S(6)   -3.8142473446022
  -gammas
  -Isotopes
SOLUTION_RAW       18 Solution after simulation 4.
  -temp              25
  -pH                5.4446288012495
  -pe                15.222840949199
  -mu                3.9302117220766
  -ah2o              0.88218155976869
  -total_h           111.03819980119
  -total_o           55.578228117094
  -cb                0.023815469441462
  -mass_water        1.0001216339291
  -total_alkalinity  0.012262178022214
  -totals
    As   2.0424222519046e-08
    C   0.021040652325045
    Ca   0.22013428004418
    Cl   3.5984659748447
    Mg   0.10065379502652
    Na   2.9983029042514
    S   0.0026677058301314
  -activities
    As   -10.634937774432
    C(-4)   -142.50423569887
    C(4)   -7.5095456164459
    Ca   -0.97028425870788
    Cl   0.30700118742455
    Mg   -1.1006245084002
    Na   0.49105939871887
    S(-2)   -141.06387264064
    S(6)   -4.1472537125306
  -gammas
  -Isotopes
SOLUTION_RAW       19 Solution after simulation 4.
  -temp              25
  -pH                5.7263737914656
  -pe                14.910824176249
  -mu                1.7542077332775
  -ah2o              0.94655562343009
  -total_h           111.05772649992
  -total_o           55.608901569274
  -cb                0.043684615806449
  -mass_water        1.0002667832873
  -total_alkalinity  0.015690269656066
  -totals
    As   6.0925298434729e-09
    C   0.033295954671952
    Ca   0.084479451318418
    Cl   1.5935065635352
    Mg   0.047663954040761
    Na   1.3912191647478
    S   0.0013122601879254
  -activities
    As   -11.752541997375
    C(-4)   -142.23847000619
    C(4)   -6.8307001333201
    Ca   -1.6491297418338
    Cl   -0.038926685606638
    Mg   -1.7794699915261
    Na   0.027738075460197
    S(-2)   -141.25142374958
    S(6)   -4.1728815574506
  -gammas
  -Isotopes
SOLUTION_RAW       20 Solution after simulation 4.
  -temp              25
  -pH                6.1738558494125
  -pe                14.442597345822
  -mu                0.58397582655828
  -ah2o              0.9816613720653
  -total_h           111.04936660834
  -total_o           55.592092045517
  -cb                0.032481421915518
  -mass_water        1.0001869897571
  -total_alkalinity  0.016204004583089
  -totals
    As   1.6476477695891e-09
    C   0.028276226363568
    Ca   0.021594018466326
    Cl   0.51945159056306
    Mg   0.014025799851594
    Na   0.49806968039085
    S   0.00058614915868472
  -activities
    As   -12.996322508191
    C(-4)   -142.38464092724
    C(4)   -6.2004185543591
    Ca   -2.2794113207947
    Cl   -0.48300737894428
    Mg   -2.4097515704871
    Na   -0.45474286860908
    S(-2)   -141.62247235454
    S(6)   -4.1991441359648
  -gammas
  -Isotopes
SOLUTION_RAW       21 Solution after simulation 4.
  -temp              25
  -pH                6.7085978242238
  -pe                13.90003910878
  -mu                0.17531722867672
  -ah2o              0.99430934356217
  -total_h           111.03340665349
  -total_o           55.564121774263
  -cb                0.015395603306693
  -mass_water        1.0000562242876
  -total_alkalinity  0.014776486161419
  -totals
    As   1.4307983074396e-09
    C   0.019132460024438
    Ca   0.0042755501551391
    Cl   0.14633913432678
    Mg   0.002981412418007
    Na   0.16266511579552
    S   0.00033390785805918
  -activities
    As   -13.801283045171
    C(-4)   -142.81502574853
    C(4)   -5.6071700825776
    Ca   -2.8726597925762
    Cl   -0.97601219187922
    Mg   -3.0030000422686
    Na   -0.91516415870921
    S(-2)   -142.05173800114
    S(6)   -4.1339587600664
  -gammas
  -Isotopes
SOLUTION_RAW       22 Solution after simulation 4.
  -temp              25
  -pH                7.4162392198106
  -pe                13.189856446392
  -mu                0.048239919019401
  -ah2o              0.99840597148332
  -total_h           111.02307845648
  -total_o           55.542969787166
  -cb                0.0047151312789493
  -mass_water        0.99999400685282
  -total_alkalinity  0.01139274074684
  -totals
    As   7.0412670376526e-09
    C   0.012134649733273
    Ca   0.00067139792106887
    Cl   0.033004956231474
    Mg   0.0004834560159118
    Na   0.047317704963216
    S   0.00025728876932338
  -activities
    As   -14.199769682671
    C(-4)   -143.55825981327
    C(4)   -4.9500945341718
    Ca   -3.529735340982
    Cl   -1.5700137045613
    Mg   -3.6600755906744
    Na   -1.4103161384651
    S(-2)   -142.59757469238
    S(6)   -3.985341470442
  -gammas
  -Isotopes
SOLUTION_RAW       23 Solution after simulation 4.
  -temp              25
  -pH                8.0006143451728
  -pe                12.604808222086
  -mu                0.016089997005521
  -ah2o              0.99947272105905
  -total_h           111.01934560314
  -total_o           55.53347180957
  -cb                0.0008967685304252
  -mass_water        0.99998358964996
  -total_alkalinity  0.0088875077685753
  -totals
    As   5.4854913570243e-08
    C   0.0089810920598127
    Ca   0.00016782502060751
    Cl   0.0058560929463146
    Mg   0.00012123594527456
    Na   0.015540172059352
    S   0.00023893494544365
  -activities
    As   -14.30800342947
    C(-4)   -144.21652947906
    C(4)   -4.4436083428259
    Ca   -4.036221532328
    Cl   -2.2885283732582
    Mg   -4.1665617820203
    Na   -1.8649392205077
    S(-2)   -143.05797872258
    S(6)   -3.8649010122021
  -gammas
  -Isotopes
SOLUTION_RAW       24 Solution after simulation 4.
  -temp              25
  -pH                8.4677376533364
  -pe                12.137547583509
  -mu                0.0096080968702937
  -ah2o              0.99969138849659
  -total_h           111.01840127864
  -total_o           55.531230101057
  -cb                -6.5705317484193e-05
  -mass_water        0.99998158065716
  -total_alkalinity  0.0083560148731326
  -totals
    As   3.685724944595e-07
    C   0.0082359055525437
    Ca   5.9237449940929e-05
    Cl   0.00043563832769403
    Mg   4.1835523362874e-05
    Na   0.0089947114198724
    S   0.00023527045532156
  -activities
    As   -14.355431752984
    C(-4)   -144.70851004601
    C(4)   -4.0021548713769
    Ca   -4.4776750037769
    Cl   -3.4055904319572
    Mg   -4.6080152534692
    Na   -2.0922361344308
    S(-2)   -143.47670665026
    S(6)   -3.8172231309264
  -gammas
  -Isotopes
SOLUTION_RAW       25 Solution after simulation 4.
  -temp              25
  -pH                8.451225598187
  -pe                12.154051723742
  -mu                0.0092705032832096
  -ah2o              0.99970266162735
  -total_h           111.01834173495
  -total_o           55.531017766672
  -cb                -0.00012592297638279
  -mass_water        0.9999816205672
  -total_alkalinity  0.0082748287414452
  -totals
    As   3.4226240450467e-07
    C   0.0081652582495214
    Ca   6.1349737791224e-05
    Cl   0.00021084852812883
    Mg   4.3397622830099e-05
    Na   0.0086208387769703
    S   0.00023511847130857
  -activities
    As   -14.352232134097
    C(-4)   -144.69472585305
    C(4)   -4.0214431076153
    Ca   -4.4583867675385
    Cl   -3.7200349379647
    Mg   -4.5887270172308
    Na   -2.1099628443736
    S(-2)   -143.45751684064
    S(6)   -3.8145886793857
  -gammas
  -Isotopes
SOLUTION_RAW       26 Solution after simulation 4.
  -temp              25
  -pH                8.3628515105116
  -pe                12.242420962099
  -mu                0.0090925518102179
  -ah2o              0.99970815534269
  -total_h           111.0183250286
  -total_o           55.530838038405
  -cb                -0.00014251607606305
  -mass_water        0.99998185864892
  -total_alkalinity  0.0081720131485219
  -totals
    As   2.342304493347e-07
    C   0.0081055185167787
    Ca   7.4037607242334e-05
    Cl   0.00014908619551656
    Mg   5.2734307853112e-05
    Na   0.0083954270956133
    S   0.00023507671368974
  -activities
    As   -14.340929007565
    C(-4)   -144.60833464468
    C(4)   -4.1118314621375
    Ca   -4.3679984130163
    Cl   -3.8701870840137
    Mg   -4.4983386627086
    Na   -2.1209604805507
    S(-2)   -143.36835941611
    S(6)   -3.813834266715
  -gammas
  -Isotopes
SOLUTION_RAW       27 Solution after simulation 4.
  -temp              25
  -pH                5.4526958622273
  -pe                15.212035967289
  -mu                3.6788888140096
  -ah2o              0.88957498857256
  -total_h           111.04161371546
  -total_o           55.584351678474
  -cb                0.02764835422881
  -mass_water        1.0001460437907
  -total_alkalinity  0.012967243190722
  -totals
    As   1.9471635474439e-08
    C   0.023379728085207
    Ca   0.20349988015224
    Cl   3.3667982379641
    Mg   0.095162551189245
    Na   2.8151111675093
    S   0.0025110876684749
  -activities
    As   -10.699014112366
    C(-4)   -142.44056466191
    C(4)   -7.4407700681578
    Ca   -1.039059806996
    Cl   0.27744498383119
    Mg   -1.1694000566883
    Na   0.44736174522308
    S(-2)   -141.06420609099
    S(6)   -4.1469251159687
  -gammas
  -Isotopes
SOLUTION_RAW       28 Solution after simulation 4.
  -temp              25
  -pH                5.7437000393412
  -pe                14.891957936766
  -mu                1.661625152861
  -ah2o              0.94928878638701
  -total_h           111.05897852691
  -total_o           55.610919007942
  -cb                0.044811357131687
  -mass_water        1.0002754294717
  -total_alkalinity  0.015983360996121
  -totals
    As   5.6196635992559e-09
    C   0.034031751605796
    Ca   0.079001751921524
    Cl   1.5079764668713
    Mg   0.045014122002193
    Na   1.3232483184917
    S   0.0012544378601605
  -activities
    As   -11.819044825353
    C(-4)   -142.22712424159
    C(4)   -6.7932651900375
    Ca   -1.6865646851163
    Cl   -0.061395161365293
    Mg   -1.8169049348087
    Na   0.001437608508486
    S(-2)   -141.26384954515
    S(6)   -4.175292203921
  -gammas
  -Isotopes
SOLUTION_RAW       29 Solution after simulation 4.
  -temp              25
  -pH                6.161020075297
  -pe                14.455695519865
  -mu                0.59753163474321
  -ah2o              0.98122957978319
  -total_h           111.05048297302
  -total_o           55.594233688236
  -cb                0.033659266392446
  -mass_water        1.0001947570746
  -total_alkalinity  0.016457965404082
  -totals
    As   1.672695554335e-09
    C   0.028988479229044
    Ca   0.02208605152726
    Cl   0.53151423016504
    Mg   0.014316883273154
    Na   0.51001420215185
    S   0.0005943040592034
  -activities
    As   -12.972100828857
    C(-4)   -142.36884559231
    C(4)   -6.2087687785545
    Ca   -2.2710610965993
    Cl   -0.4741040846147
    Mg   -2.4014013462917
    Na   -0.44455899976765
    S(-2)   -141.61098980264
    S(6)   -4.1991624388255
  -gammas
  -Isotopes
SOLUTION_RAW       30 Solution after simulation 4.
  -temp              25
  -pH                6.6417303517616
  -pe                13.967429816974
  -mu                0.20159016090449
  -ah2o              0.99346398013007
  -total_h           111.03562173305
  -total_o           55.568541375797
  -cb                0.0176929130686
  -mass_water        1.0000703586247
  -total_alkalinity  0.015421089102778
  -totals
    As   1.3480651567752e-09
    C   0.020596338053651
    Ca   0.0050632557048117
    Cl   0.16973105890826
    Mg   0.0035105216187146
    Na   0.18639695154591
    S   0.00034972188263338
  -activities
    As   -13.732630481667
    C(-4)   -142.74141821772
    C(4)   -5.664219790919
    Ca   -2.8156100842348
    Cl   -0.91809168040747
    Mg   -2.9459503339271
    Na   -0.86031977693159
    S(-2)   -141.99974654151
    S(6)   -4.1461264501793
  -gammas
  -Isotopes
SOLUTION_RAW       31 Solution after simulation 4.
  -temp              25
  -pH                7.2714616999397
  -pe                13.334960124947
  -mu                0.063916915818684
  -ah2o              0.99788701046361
  -total_h           111.02489296
  -total_o           55.547384697985
  -cb                0.0065741701449246
  -mass_water        1.0000005433477
  -total_alkalinity  0.012473641605337
  -totals
    As   4.6167274785868e-09
    C   0.013600582930325
    Ca   0.00094255926256341
    Cl   0.046340980478292
    Mg   0.00067568473076499
    Na   0.062684917934935
    S   0.00026630453815475
  -activities
    As   -14.14994184825
    C(-4)   -143.38676055302
    C(4)   -5.0662168956392
    Ca   -3.4136129795146
    Cl   -1.4328517829645
    Mg   -3.543953229207
    Na   -1.2968919195298
    S(-2)   -142.48797515929
    S(6)   -4.0188128266458
  -gammas
  -Isotopes
SOLUTION_RAW       32 Solution after simulation 4.
  -temp              25
  -pH                8.3653720327476
  -pe                12.239976124525
  -mu                0.012520015636837
  -ah2o              0.99959198775854
  -total_h           111.01881554249
  -total_o           55.532382632807
  -cb                0.00035652458408607
  -mass_water        0.99998184426097