#PHAST restart file
#Prefix: print_check_ss
#Date: Wed Nov  1 09:46:43 2006
#Current model time: 31000
#nx, ny, nz: 16, 9, 3
SOLUTION_RAW       -2 
  -temp              25
  -pH                7
  -pe                4
  -mu                1e-07
  -ah2o              1
  -total_h           111.05057778704
  -total_o           55.594726828085
  -cb                0.033804955906135
  -mass_water        1
  -total_alkalinity  0
  -totals
    As   3.1008176785599e-09
    C   0.029173733865541
    Ca   0.021817174063517
    Cl   0.51892109182918
    Mg   0.013989715980841
    Na   0.49895901715861
    S   0.00058579044193008
  -activities
    As   -10.508523768598
    C(-4)   -3.5350079831709
    C(4)   -3.5350079831709
    Ca   -3.6612015034315
    Cl   -2.2848986768116
    Mg   -3.8541911024635
    Na   -2.3019351244223
    S(-2)   -5.2322577187775
    S(6)   -5.2322577187775
  -gammas
  -Isotopes
SOLUTION_RAW       0 Solution after simulation 4.
  -temp              25
  -pH                5.4364963525335
  -pe                15.234423738617
  -mu                4.2884819640112
  -ah2o              0.87161386937857
  -total_h           111.03411760662
  -total_o           55.570898186492
  -cb                0.019210845665926
  -mass_water        1.0000930153105
  -total_alkalinity  0.011355850499227
  -totals
    As   2.1396346752377e-08
    C   0.018185284063284
    Ca   0.24385179490062
    Cl   3.9285939205744
    Mg   0.10802795457942
    Na   3.2611829147046
    S   0.0028908877643992
  -activities
    As   -10.556126517348
    C(-4)   -142.59461076062
    C(4)   -7.6042843294034
    Ca   -0.87554554575044
    Cl   0.34644389400492
    Mg   -1.0058857954428
    Na   0.55113781181138
    S(-2)   -141.06393247482
    S(6)   -4.1487786233965
  -gammas
  -Isotopes
SOLUTION_RAW       1 Solution after simulation 4.
  -temp              25
  -pH                5.6628781347699
  -pe                14.978697484998
  -mu                2.0206498079831
  -ah2o              0.93860981792458
  -total_h           111.05773030246
  -total_o           55.609949409274
  -cb                0.044280106550334
  -mass_water        1.0002670959656
  -total_alkalinity  0.015656794255979
  -totals
    As   7.7985790213447e-09
    C   0.033502902503198
    Ca   0.099877138017888
    Cl   1.8382645897635
    Mg   0.054793168482927
    Na   1.5918163415238
    S   0.0014777280785548
  -activities
    As   -11.541333733891
    C(-4)   -142.23366800068
    C(4)   -6.9288512871676
    Ca   -1.5509785879862
    Cl   0.019682847480534
    Mg   -1.6813188376786
    Na   0.10000563852209
    S(-2)   -141.2016639115
    S(6)   -4.1662403058617
  -gammas
  -Isotopes
SOLUTION_RAW       2 Solution after simulation 4.
  -temp              25
  -pH                6.1170626572072
  -pe                14.500686333899
  -mu                0.65194016496404
  -ah2o              0.97954560726741
  -total_h           111.05336877472
  -total_o           55.599556580553
  -cb                0.036725946282657
  -mass_water        1.0002164611312
  -total_alkalinity  0.016933415977776
  -totals
    As   1.7853593608649e-09
    C   0.030744733403229
    Ca   0.024518745631426
    Cl   0.58046661942315
    Mg   0.015770368480151
    Na   0.5548025516754
    S   0.00062739821480473
  -activities
    As   -12.882855967061
    C(-4)   -142.3279843462
    C(4)   -6.2497931107279
    Ca   -2.230036764426
    Cl   -0.43985174790271
    Mg   -2.3603770141183
    Na   -0.40814487396648
    S(-2)   -141.57277745924
    S(6)   -4.1996242241663
  -gammas
  -Isotopes
SOLUTION_RAW       3 Solution after simulation 4.
  -temp              25
  -pH                6.6679992146675
  -pe                13.940929478046
  -mu                0.18894584096018
  -ah2o              0.99384869564262
  -total_h           111.03600887595
  -total_o           55.569825415556
  -cb                0.018040368460359
  -mass_water        1.0000692496487
  -total_alkalinity  0.015933396267797
  -totals
    As   1.3684505508513e-09
    C   0.021029984132271
    Ca   0.0045007211817255
    Cl   0.1572898886405
    Mg   0.0031287401595078
    Na   0.17668735422431
    S   0.00034131108483096
  -activities
    As   -13.762491390124
    C(-4)   -142.7477029218
    C(4)   -5.6193141392358
    Ca   -2.8605157359181
    Cl   -0.9481353544604
    Mg   -2.9908559856104
    Na   -0.88168048101841
    S(-2)   -142.01914132824
    S(6)   -4.1404316148077
  -gammas
  -Isotopes
SOLUTION_RAW       4 Solution after simulation 4.
  -temp              25
  -pH                7.4097887023998
  -pe                13.19641309076
  -mu                0.052707619820068
  -ah2o              0.9982501346659
  -total_h           111.02422965811
  -total_o           55.546237529147
  -cb                0.0058766707021556
  -mass_water        0.99999529219207
  -total_alkalinity  0.012409122899338
  -totals
    As   7.081265048405e-09
    C   0.013222718077118
    Ca   0.00064747066415565
    Cl   0.035952671958666
    Mg   0.00046533538335435
    Na   0.052531423612825
    S   0.00025928153321071
  -activities
    As   -14.194924000699
    C(-4)   -143.51851124048
    C(4)   -4.9226013987333
    Ca   -3.5572284764205
    Cl   -1.5359955182426
    Mg   -3.6875687261128
    Na   -1.3677416959353
    S(-2)   -142.60110342786
    S(6)   -3.9947430313907
  -gammas
  -Isotopes
SOLUTION_RAW       5 Solution after simulation 4.
  -temp              25
  -pH                8.187618970987
  -pe                12.4178013946
  -mu                0.015785556100834
  -ah2o              0.9994809662226
  -total_h           111.01941024716
  -total_o           55.533953120189
  -cb                0.00095969398475549
  -mass_water        0.99998255250553
  -total_alkalinity  0.0091454405729641
  -totals
    As   1.195764671315e-07
    C   0.0091417147231451
    Ca   0.0001085512220902
    Cl   0.0053214825911358
    Mg   7.7820400899061e-05
    Na   0.015531140458899
    S   0.00023857348977753
  -activities
    As   -14.333010037328
    C(-4)   -144.39399391639
    C(4)   -4.2470694167816
    Ca   -4.2327604583722
    Cl   -2.3296394427263
    Mg   -4.3631007080646
    Na   -1.8649692779237
    S(-2)   -143.24091737633
    S(6)   -3.8608373026965
  -gammas
  -Isotopes
SOLUTION_RAW       6 Solution after simulation 4.
  -temp              25
  -pH                8.5225486836262
  -pe                12.082775313475
  -mu                0.011277551955508
  -ah2o              0.99963557707661
  -total_h           111.01869236892
  -total_o           55.532239981098
  -cb                0.00022880778320249
  -mass_water        0.99998145298402
  -total_alkalinity  0.0087340697529258
  -totals
    As   4.7203849510097e-07
    C   0.0085718968010518
    Ca   5.2739710509174e-05
    Cl   0.001572960881974
    Mg   3.7021490687372e-05
    Na   0.010828866693013
    S   0.00023603931940449
  -activities
    As   -14.369066034485
    C(-4)   -144.75061598323
    C(4)   -3.9343998912435
    Ca   -4.5454299839103
    Cl   -2.8513085606888
    Mg   -4.6757702336027
    Na   -2.0149140622296
    S(-2)   -143.54415310808
    S(6)   -3.8296432683813
  -gammas
  -Isotopes
SOLUTION_RAW       7 Solution after simulation 4.
  -temp              25
  -pH                8.6144453934762
  -pe                11.990867903178
  -mu                0.010749060250969
  -ah2o              0.99965500033936
  -total_h           111.01859187541
  -total_o           55.532092332806
  -cb                0.00012603531892383
  -mass_water        0.99998127148686
  -total_alkalinity  0.0087377495833358
  -totals
    As   6.9310942878428e-07
    C   0.0085226139446254
    Ca   4.3712866209439e-05
    Cl   0.0010678157635477
    Mg   3.0400615188189e-05
    Na   0.010255462456048
    S   0.00023569782180347
  -activities
    As   -14.3807680443
    C(-4)   -144.84566232704
    C(4)   -3.8457139898296
    Ca   -4.6341158853242
    Cl   -3.0185166602815
    Mg   -4.7644561350166
    Na   -2.0377977476421
    S(-2)   -143.63169201926
    S(6)   -3.8253385643203
  -gammas
  -Isotopes
SOLUTION_RAW       8 Solution after simulation 4.
  -temp              25
  -pH                8.4831491452259
  -pe                12.122130631625
  -mu                0.0093635736530824
  -ah2o              0.99969981662803
  -total_h           111.01835372221
  -total_o           55.531104584828
  -cb                -0.00011396211820409
  -mass_water        0.9999815445145
  -total_alkalinity  0.0083205530669423
  -totals
    As   3.9244769440443e-07
    C   0.0081941145670293
    Ca   5.7370664511146e-05
    Cl   0.00024826769781991
    Mg   4.0469048696893e-05
    Na   0.0087298591995581
    S   0.0002351437658608
  -activities
    As   -14.356734603531
    C(-4)   -144.72574088684
    C(4)   -3.9885955379296
    Ca   -4.4912343372242
    Cl   -3.6492828226046
    Mg   -4.6215745869166
    Na   -2.1047539734029
    S(-2)   -143.49000160098
    S(6)   -3.815135782343
  -gammas
  -Isotopes
SOLUTION_RAW       9 Solution after simulation 4.
  -temp              25
  -pH                5.4379978813706
  -pe                15.231800936479
  -mu                4.1652579626214
  -ah2o              0.8752503467324
  -total_h           111.0355007248
  -total_o           55.573405820407
  -cb                0.020773785615704
  -mass_water        1.0001025625109
  -total_alkalinity  0.011679462981243
  -totals
    As   2.1153105885763e-08
    C   0.019162920552915
    Ca   0.23568849489556
    Cl   3.8150369236037
    Mg   0.10554510533275
    Na   3.1706512286599
    S   0.0028141178813494
  -activities
    As   -10.579983095633
    C(-4)   -142.56184909481
    C(4)   -7.5720653358115
    Ca   -0.90776453934231
    Cl   0.33320309897611
    Mg   -1.0381047890347
    Na   0.5307622187596
    S(-2)   -141.06302674841
    S(6)   -4.1481089263855
  -gammas
  -Isotopes
SOLUTION_RAW       10 Solution after simulation 4.
  -temp              25
  -pH                5.6877770498793
  -pe                14.952093222419
  -mu                1.9159072859387
  -ah2o              0.9417354301202
  -total_h           111.0576321469
  -total_o           55.609335462228
  -cb                0.043940310726362
  -mass_water        1.0002663910153
  -total_alkalinity  0.015637892380113
  -totals
    As   7.0847187521588e-09
    C   0.033352652627187
    Ca   0.093804556915912
    Cl   1.7420945208031
    Mg   0.052027918586228
    Na   1.5128332051407
    S   0.0014127125753638
  -activities
    As   -11.623673177958
    C(-4)   -142.23658182577
    C(4)   -6.8912786454601
    Ca   -1.5885512296937
    Cl   -0.0024371227437883
    Mg   -1.7188914793861
    Na   0.072373396912602
    S(-2)   -141.22120798405
    S(6)   -4.1687529925846
  -gammas
  -Isotopes
SOLUTION_RAW       11 Solution after simulation 4.
  -temp              25
  -pH                6.1454039806282
  -pe                14.471665446322
  -mu                0.61616856461799
  -ah2o              0.98065694288182
  -total_h           111.05141512011
  -total_o           55.59592993858
  -cb                0.034647824741027
  -mass_water        1.0002019052689
  -total_alkalinity  0.016596208126839
  -totals
    As   1.7096459743725e-09
    C   0.029546813456435
    Ca   0.022963655240066
    Cl   0.54825965180181
    Mg   0.014845740366136
    Na   0.52509614469446
    S   0.00060562476376811
  -activities
    As   -12.94097843073
    C(-4)   -142.3550098361
    C(4)   -6.2240951300238
    Ca   -2.2557347451301
    Cl   -0.46205265394614
    Mg   -2.3860749948224
    Na   -0.43199069408972
    S(-2)   -141.59754571317
    S(6)   -4.1995178861188
  -gammas
  -Isotopes
SOLUTION_RAW       12 Solution after simulation 4.
  -temp              25
  -pH                6.7010104421775
  -pe                13.90767237343
  -mu                0.17704380595255
  -ah2o              0.99424172430311
  -total_h           111.03436502688
  -total_o           55.566338094634
  -cb                0.016360991353001
  -mass_water        1.0000602399466
  -total_alkalinity  0.015289812545782
  -totals
    As   1.4146310112138e-09
    C   0.019871557315386
    Ca   0.0042275789722728
    Cl   0.14719777817236
    Mg   0.0029466705021122
    Na   0.16516906120712
    S   0.00033448833505791
  -activities
    As   -13.795026632615
    C(-4)   -142.79329248281
    C(4)   -5.6003331268408
    Ca   -2.879496748313
    Cl   -0.97392399958422
    Mg   -3.0098369980054
    Na   -0.90889642455804
    S(-2)   -142.04518336267
    S(6)   -4.1347425929933
  -gammas
  -Isotopes
SOLUTION_RAW       13 Solution after simulation 4.
  -temp              25
  -pH                7.445479575867
  -pe                13.160600901332
  -mu                0.047214509016782
  -ah2o              0.99843648169509
  -total_h           111.02326408747
  -total_o           55.543624530577
  -cb                0.004897239199842
  -mass_water        0.99999343471405
  -total_alkalinity  0.011647694315636
  -totals
    As   7.7947224429041e-09
    C   0.012353567018624
    Ca   0.00061108045391992
    Cl   0.031727702110384
    Mg   0.00044000028515405
    Na   0.04668333247736
    S   0.00025642526746165
  -activities
    As   -14.207168018559
    C(-4)   -143.57702034994
    C(4)   -4.9104560569042
    Ca   -3.5693738182496
    Cl   -1.5864056618454
    Mg   -3.699714067942
    Na   -1.4155904145016
    S(-2)   -142.62370915459
    S(6)   -3.9823040144274
  -gammas
  -Isotopes
SOLUTION_RAW       14 Solution after simulation 4.
  -temp              25
  -pH                8.0574569541895
  -pe                12.547941054859
  -mu                0.014885594854727
  -ah2o              0.99951274120377
  -total_h           111.01923350431
  -total_o           55.533213604612
  -cb                0.00078132733418137
  -mass_water        0.99998322209584
  -total_alkalinity  0.0088311199242918
  -totals
    As   6.8668651733549e-08
    C   0.0088955079072656
    Ca   0.00014643327060321
    Cl   0.0047866666742814
    Mg   0.00010562887489544
    Na   0.014371482221441
    S   0.0002382119555161
  -activities
    As   -14.314251828767
    C(-4)   -144.27484327648
    C(4)   -4.3883802640336
    Ca   -4.0914496111202
    Cl   -2.3742342190655
    Mg   -4.2217898608126
    Na   -1.8972079330102
    S(-2)   -143.10709857402
    S(6)   -3.8573041720493
  -gammas
  -Isotopes
SOLUTION_RAW       15 Solution after simulation 4.
  -temp              25
  -pH                8.3959312728028
  -pe                12.209365973364
  -mu                0.010167046478013
  -ah2o              0.99967189938678
  -total_h           111.01851094849
  -total_o           55.531465458784
  -cb                4.5762913598694e-05
  -mass_water        0.99998176708775
  -total_alkalinity  0.0084016716452068
  -totals
    As   2.7316239639411e-07
    C   0.0083142795665649
    Ca   6.8942488307264e-05
    Cl   0.00090066770224594
    Mg   4.8954534083771e-05
    Na   0.0095837510444728
    S   0.00023558483290349
  -activities
    As   -14.347882083984
    C(-4)   -144.63314035947
    C(4)   -4.0703264240137
    Ca   -4.4095034511401
    Cl   -3.0912966885351
    Mg   -4.5398437008325
    Na   -2.0656550644812
    S(-2)   -143.40988765534
    S(6)   -3.8221470327788
  -gammas
  -Isotopes
SOLUTION_RAW       16 Solution after simulation 4.
  -temp              25
  -pH                8.4385363997092
  -pe                12.166748062842
  -mu                0.0095854600208605
  -ah2o              0.99969189511248
  -total_h           111.01840392112
  -total_o           55.531193424593
  -cb                -6.2919846430282e-05
  -mass_water        0.99998165301925
  -total_alkalinity  0.0083289327753768
  -totals
    As   3.2545697285773e-07
    C   0.0082237335270166
    Ca   6.2981215605711e-05
    Cl   0.00044198514033813
    Mg   4.4588687996476e-05
    Na   0.0089637331843009
    S   0.00023527473262387
  -activities
    As   -14.351513066155
    C(-4)   -144.67955518092
    C(4)   -4.0316080527452
    Ca   -4.4482218224087
    Cl   -3.3992616779632
    Mg   -4.578562072101
    Na   -2.0936366687577
    S(-2)   -143.44752585515
    S(6)   -3.8172489117668
  -gammas
  -Isotopes
SOLUTION_RAW       17 Solution after simulation 4.
  -temp              25
  -pH                8.3583055756743
  -pe                12.246967903799
  -mu                0.0091370809558349
  -ah2o              0.99970663007066
  -total_h           111.01833526475
  -total_o           55.530863482805
  -cb                -0.00013215562133135
  -mass_water        0.99998187257883
  -total_alkalinity  0.0081786237224385
  -totals
    As   2.2991003818975e-07
    C   0.0081139919386027
    Ca   7.4751945234029e-05
    Cl   0.000181964463763
    Mg   5.3258171098098e-05
    Na   0.0084428401259773
    S   0.00023509894186662
  -activities
    As   -14.340408888838
    C(-4)   -144.60341548229
    C(4)   -4.1159978969822
    Ca   -4.3638319781716
    Cl   -3.7837337225821
    Mg   -4.494172227864
    Na   -2.118599929288
    S(-2)   -143.36423225331
    S(6)   -3.8142473446389
  -gammas
  -Isotopes
SOLUTION_RAW       18 Solution after simulation 4.
  -temp              25
  -pH                5.4446288012496
  -pe                15.222840949203
  -mu                3.9302117220773
  -ah2o              0.88218155976868
  -total_h           111.03819980119
  -total_o           55.578228117094
  -cb                0.02381546944227
  -mass_water        1.0001216339291
  -total_alkalinity  0.012262178022202
  -totals
    As   2.042422251904e-08
    C   0.021040652325013
    Ca   0.22013428004442
    Cl   3.5984659748447
    Mg   0.10065379502663
    Na   2.9983029042515
    S   0.0026677058301342
  -activities
    As   -10.634937774432
    C(-4)   -142.5042356989
    C(4)   -7.5095456164465
    Ca   -0.97028425870728
    Cl   0.30700118742455
    Mg   -1.1006245083996
    Na   0.49105939871894
    S(-2)   -141.06387264066
    S(6)   -4.1472537125304
  -gammas
  -Isotopes
SOLUTION_RAW       19 Solution after simulation 4.
  -temp              25
  -pH                5.7263737914654
  -pe                14.910824176249
  -mu                1.7542077332782
  -ah2o              0.94655562343008
  -total_h           111.05772649992
  -total_o           55.608901569274
  -cb                0.04368461580716
  -mass_water        1.0002667832873
  -total_alkalinity  0.01569026965604
  -totals
    As   6.0925298434767e-09
    C   0.033295954671889
    Ca   0.084479451318624
    Cl   1.5935065635352
    Mg   0.047663954040874
    Na   1.3912191647478
    S   0.0013122601879299
  -activities
    As   -11.752541997374
    C(-4)   -142.23847000619
    C(4)   -6.8307001333212
    Ca   -1.6491297418326
    Cl   -0.038926685606649
    Mg   -1.779469991525
    Na   0.027738075460247
    S(-2)   -141.25142374957
    S(6)   -4.1728815574494
  -gammas
  -Isotopes
SOLUTION_RAW       20 Solution after simulation 4.
  -temp              25
  -pH                6.1738558494122
  -pe                14.44259734582
  -mu                0.58397582655855
  -ah2o              0.9816613720653
  -total_h           111.04936660834
  -total_o           55.592092045517
  -cb                0.032481421915824
  -mass_water        1.0001869897571
  -total_alkalinity  0.016204004583032
  -totals
    As   1.6476477695895e-09
    C   0.028276226363471
    Ca   0.021594018466421
    Cl   0.51945159056306
    Mg   0.014025799851656
    Na   0.49806968039079
    S   0.00058614915868955
  -activities
    As   -12.996322508191
    C(-4)   -142.38464092722
    C(4)   -6.200418554361
    Ca   -2.2794113207928
    Cl   -0.4830073789443
    Mg   -2.4097515704851
    Na   -0.45474286860913
    S(-2)   -141.62247235452
    S(6)   -4.1991441359616
  -gammas
  -Isotopes
SOLUTION_RAW       21 Solution after simulation 4.
  -temp              25
  -pH                6.7085978242236
  -pe                13.90003910878
  -mu                0.1753172286767
  -ah2o              0.99430934356218
  -total_h           111.03340665349
  -total_o           55.564121774262
  -cb                0.015395603306742
  -mass_water        1.0000562242876
  -total_alkalinity  0.014776486161313
  -totals
    As   1.4307983074393e-09
    C   0.019132460024301
    Ca   0.0042755501551705
    Cl   0.14633913432678
    Mg   0.0029814124180289
    Na   0.16266511579536
    S   0.00033390785806247
  -activities
    As   -13.801283045171
    C(-4)   -142.81502574853
    C(4)   -5.6071700825809
    Ca   -2.8726597925729
    Cl   -0.97601219187922
    Mg   -3.0030000422652
    Na   -0.91516415870962
    S(-2)   -142.05173800114
    S(6)   -4.1339587600624
  -gammas
  -Isotopes
SOLUTION_RAW       22 Solution after simulation 4.
  -temp              25
  -pH                7.4162392198118
  -pe                13.18985644639
  -mu                0.04823991901923
  -ah2o              0.99840597148332
  -total_h           111.02307845648
  -total_o           55.542969787166
  -cb                0.004715131278874
  -mass_water        0.99999400685282
  -total_alkalinity  0.011392740746691
  -totals
    As   7.0412670376775e-09
    C   0.012134649733112
    Ca   0.00067139792107449
    Cl   0.033004956231473
    Mg   0.00048345601591592
    Na   0.047317704962974
    S   0.00025728876932464
  -activities
    As   -14.199769682671
    C(-4)   -143.55825981326
    C(4)   -4.9500945341762
    Ca   -3.5297353409776
    Cl   -1.5700137045612
    Mg   -3.66007559067
    Na   -1.4103161384672
    S(-2)   -142.59757469237
    S(6)   -3.9853414704395
  -gammas
  -Isotopes
SOLUTION_RAW       23 Solution after simulation 4.
  -temp              25
  -pH                8.0006143455526
  -pe                12.604808221704
  -mu                0.016089997006585
  -ah2o              0.999472721059
  -total_h           111.01934560314
  -total_o           55.533471809573
  -cb                0.00089676853096008
  -mass_water        0.99998358964996
  -total_alkalinity  0.0088875077695684
  -totals
    As   5.4854913657687e-08
    C   0.008981092060602
    Ca   0.00016782502045305
    Cl   0.0058560929463146
    Mg   0.00012123594516131
    Na   0.015540172061416
    S   0.0002389349454438
  -activities
    As   -14.308003429521
    C(-4)   -144.21652941456
    C(4)   -4.4436083424046
    Ca   -4.0362215327492
    Cl   -2.2885283732598
    Mg   -4.1665617824416
    Na   -1.864939220452
    S(-2)   -143.05797864704
    S(6)   -3.8649010122016
  -gammas
  -Isotopes
SOLUTION_RAW       24 Solution after simulation 4.
  -temp              25
  -pH                8.4677376613241
  -pe                12.137547575524
  -mu                0.0096080968785809
  -ah2o              0.99969138849639
  -total_h           111.01840127864
  -total_o           55.531230101068
  -cb                -6.5705318192878e-05
  -mass_water        0.99998158065714
  -total_alkalinity  0.0083560148807448
  -totals
    As   3.6857250700245e-07
    C   0.0082359055559988
    Ca   5.9237448953392e-05
    Cl   0.00043563832769404
    Mg   4.1835522636601e-05
    Na   0.0089947114302158
    S   0.0002352704553214
  -activities
    As   -14.355431754079
    C(-4)   -144.70851004629
    C(4)   -4.0021548633258
    Ca   -4.4776750118281
    Cl   -3.4055904319744
    Mg   -4.6080152615204
    Na   -2.0922361339627
    S(-2)   -143.47670664763
    S(6)   -3.817223130938
  -gammas
  -Isotopes
SOLUTION_RAW       25 Solution after simulation 4.
  -temp              25
  -pH                8.4512256016016
  -pe                12.154051720327
  -mu                0.0092705032949262
  -ah2o              0.99970266162697
  -total_h           111.01834173496
  -total_o           55.531017766702
  -cb                -0.00012592297017835
  -mass_water        0.99998162056719
  -total_alkalinity  0.0082748287532031
  -totals
    As   3.4226240951624e-07
    C   0.0081652582594134
    Ca   6.1349737307871e-05
    Cl   0.00021084852812929
    Mg   4.3397622474145e-05
    Na   0.0086208387966175
    S   0.00023511847130902
  -activities
    As   -14.352232134587
    C(-4)   -144.69472599122
    C(4)   -4.0214431037414
    Ca   -4.4583867714125
    Cl   -3.7200349379887
    Mg   -4.5887270211048
    Na   -2.1099628434157
    S(-2)   -143.4575171773
    S(6)   -3.8145886794692
  -gammas
  -Isotopes
SOLUTION_RAW       26 Solution after simulation 4.
  -temp              25
  -pH                8.362851505719
  -pe                12.242420966887
  -mu                0.0090925518074171
  -ah2o              0.99970815534277
  -total_h           111.0183250286
  -total_o           55.530838038401
  -cb                -0.0001425160750337
  -mass_water        0.99998185864894
  -total_alkalinity  0.0081720131452671
  -totals
    As   2.3423044453828e-07
    C   0.0081055185157232
    Ca   7.4037607997882e-05
    Cl   0.00014908619551658
    Mg   5.2734308408886e-05
    Na   0.0083954270907612
    S   0.00023507671369011
  -activities
    As   -14.340929006981
    C(-4)   -144.60833463531
    C(4)   -4.1118314669511
    Ca   -4.3679984082027
    Cl   -3.8701870840076
    Mg   -4.498338657895
    Na   -2.120960480789
    S(-2)   -143.368359405
    S(6)   -3.8138342667362
  -gammas
  -Isotopes
SOLUTION_RAW       27 Solution after simulation 4.
  -temp              25
  -pH                5.4526958622277
  -pe                15.212035967263
  -mu                3.67888881401
  -ah2o              0.88957498857256
  -total_h           111.04161371546
  -total_o           55.584351678474
  -cb                0.027648354229217
  -mass_water        1.0001460437907
  -total_alkalinity  0.012967243190704
  -totals
    As   1.9471635474421e-08
    C   0.023379728085158
    Ca   0.20349988015236
    Cl   3.3667982379641
    Mg   0.095162551189301
    Na   2.8151111675093
    S   0.0025110876684775
  -activities
    As   -10.699014112367
    C(-4)   -142.44056466171
    C(4)   -7.4407700681582
    Ca   -1.0390598069957
    Cl   0.27744498383119
    Mg   -1.169400056688
    Na   0.44736174522311
    S(-2)   -141.0642060908
    S(6)   -4.1469251159684
  -gammas
  -Isotopes
SOLUTION_RAW       28 Solution after simulation 4.
  -temp              25
  -pH                5.7437000393418
  -pe                14.891957936759
  -mu                1.6616251528613
  -ah2o              0.94928878638701
  -total_h           111.05897852691
  -total_o           55.610919007942
  -cb                0.044811357131974
  -mass_water        1.0002754294717
  -total_alkalinity  0.015983360996081
  -totals
    As   5.619663599252e-09
    C   0.034031751605676
    Ca   0.079001751921623
    Cl   1.5079764668713
    Mg   0.045014122002249
    Na   1.3232483184916
    S   0.0012544378601667
  -activities
    As   -11.819044825354
    C(-4)   -142.22712424155
    C(4)   -6.7932651900381
    Ca   -1.6865646851157
    Cl   -0.061395161365299
    Mg   -1.8169049348081
    Na   0.0014376085084829
    S(-2)   -141.2638495451
    S(6)   -4.175292203919
  -gammas
  -Isotopes
SOLUTION_RAW       29 Solution after simulation 4.
  -temp              25
  -pH                6.1610200752982
  -pe                14.455695519863
  -mu                0.59753163474328
  -ah2o              0.98122957978319
  -total_h           111.05048297302
  -total_o           55.594233688236
  -cb                0.033659266392515
  -mass_water        1.0001947570746
  -total_alkalinity  0.016457965403994
  -totals
    As   1.6726955543358e-09
    C   0.028988479228851
    Ca   0.022086051527315
    Cl   0.53151423016504
    Mg   0.01431688327319
    Na   0.51001420215166
    S   0.00059430405921181
  -activities
    As   -12.972100828858
    C(-4)   -142.36884559231
    C(4)   -6.2087687785557
    Ca   -2.2710610965982
    Cl   -0.47410408461471
    Mg   -2.4014013462905
    Na   -0.44455899976781
    S(-2)   -141.61098980263
    S(6)   -4.1991624388195
  -gammas
  -Isotopes
SOLUTION_RAW       30 Solution after simulation 4.
  -temp              25
  -pH                6.641730351763
  -pe                13.967429816971
  -mu                0.2015901609044
  -ah2o              0.99346398013007
  -total_h           111.03562173305
  -total_o           55.568541375796
  -cb                0.01769291306856
  -mass_water        1.0000703586247
  -total_alkalinity  0.015421089102637
  -totals
    As   1.3480651567788e-09
    C   0.020596338053446
    Ca   0.0050632557048398
    Cl   0.16973105890825
    Mg   0.0035105216187343
    Na   0.18639695154565
    S   0.0003497218826403
  -activities
    As   -13.732630481667
    C(-4)   -142.74141821771
    C(4)   -5.6642197909217
    Ca   -2.8156100842321
    Cl   -0.91809168040745
    Mg   -2.9459503339245
    Na   -0.86031977693218
    S(-2)   -141.99974654149
    S(6)   -4.1461264501708
  -gammas
  -Isotopes
SOLUTION_RAW       31 Solution after simulation 4.
  -temp              25
  -pH                7.2714616999338
  -pe                13.334960124953
  -mu                0.063916915818642
  -ah2o              0.99788701046362
  -total_h           111.02489296
  -total_o           55.547384697985
  -cb                0.0065741701449428
  -mass_water        1.0000005433477
  -total_alkalinity  0.012473641605247
  -totals
    As   4.6167274784891e-09
    C   0.013600582930242
    Ca   0.00094255926258241
    Cl   0.046340980478291
    Mg   0.00067568473077868
    Na   0.062684917934803
    S   0.00026630453815837
  -activities
    As   -14.149941848248
    C(-4)   -143.38676055302
    C(4)   -5.0662168956482
    Ca   -3.4136129795056
    Cl   -1.4328517829645
    Mg   -3.5439532291979
    Na   -1.2968919195307
    S(-2)   -142.48797515928
    S(6)   -4.0188128266402
  -gammas
  -Isotopes
SOLUTION_RAW       32 Solution after simulation 4.
  -temp              25
  -pH                8.3653720326596
  -pe                12.239976124613
  -mu                0.012520015637128
  -ah2o              0.99959198775853
  -total_h           111.01881554249
  -total_o           55.532382632808
  -cb                0.00035652458430637
  -mass_water        0.99998184426097