#PHAST restart file
#Prefix: print_check_transient
#Date: Wed Aug 29 11:56:06 2007
#Current model time: 31000
#nx, ny, nz: 16, 9, 3
SOLUTION_RAW       -2 
  -temp              25
  -pH                7
  -pe                4
  -mu                1e-07
  -ah2o              1
  -total_h           111.05057780902
  -total_o           55.594726871986
  -cb                0.033804974728527
  -mass_water        1
  -total_alkalinity  0
  -totals
    As   3.1008186035148e-09
    C   0.029173748115345
    Ca   0.021817206681288
    Cl   0.5189217353568
    Mg   0.013989735566086
    Na   0.49895957942366
    S   0.00058579107880506
  -activities
    As   -10.50852363905
    C(-4)   -3.5350077710414
    C(4)   -3.5350077710414
    Ca   -3.6612008541399
    Cl   -2.284898138232
    Mg   -3.8541904944628
    Na   -2.3019346350265
    S(-2)   -5.2322572466101
    S(6)   -5.2322572466101
  -gammas
  -Isotopes
SOLUTION_RAW       0 
  -temp              25
  -pH                5.4364970252911
  -pe                15.234422850163
  -mu                4.2884791004083
  -ah2o              0.87161395578149
  -total_h           111.03411758509
  -total_o           55.570898130391
  -cb                0.019210829232034
  -mass_water        1.0000930152056
  -total_alkalinity  0.011355840630032
  -totals
    As   2.1396312188757e-08
    C   0.018185267984883
    Ca   0.24385161665452
    Cl   3.9285912831291
    Mg   0.10802790476227
    Na   3.2611807030893
    S   0.0028908857677029
  -activities
    As   -10.556128297917
    C(-4)   -142.59460980166
    C(4)   -7.6042836213382
    Ca   -0.87554625381563
    Cl   0.34644359036522
    Mg   -1.005886503508
    Na   0.55113732792316
    S(-2)   -141.06393162236
    S(6)   -4.1487786515402
  -gammas
  -Isotopes
SOLUTION_RAW       1 
  -temp              25
  -pH                5.6628782781616
  -pe                14.978697299246
  -mu                2.0206496464596
  -ah2o              0.93860982336687
  -total_h           111.05773028035
  -total_o           55.609949366232
  -cb                0.044280084389091
  -mass_water        1.0002670958074
  -total_alkalinity  0.015656789707395
  -totals
    As   7.7985764187575e-09
    C   0.03350288803134
    Ca   0.099877133457334
    Cl   1.8382644460487
    Mg   0.054793167024765
    Na   1.5918161828097
    S   0.0014777279150388
  -activities
    As   -11.541334050983
    C(-4)   -142.2336679243
    C(4)   -6.9288512553337
    Ca   -1.5509786198201
    Cl   0.019682815345951
    Mg   -1.6813188695125
    Na   0.10000558685829
    S(-2)   -141.20166375327
    S(6)   -4.1662403330504
  -gammas
  -Isotopes
SOLUTION_RAW       2 
  -temp              25
  -pH                6.1170625589725
  -pe                14.500686465149
  -mu                0.65194030747972
  -ah2o              0.97954560295648
  -total_h           111.05336877805
  -total_o           55.599556587361
  -cb                0.036725948473688
  -mass_water        1.0002164611599
  -total_alkalinity  0.016933416116486
  -totals
    As   1.7853596780942e-09
    C   0.030744735588962
    Ca   0.024518752895319
    Cl   0.5804667498941
    Mg   0.015770372837573
    Na   0.55480266153197
    S   0.0006273983640621
  -activities
    As   -12.882855752136
    C(-4)   -142.32798452801
    C(4)   -6.249793230615
    Ca   -2.2300366445388
    Cl   -0.43985166025587
    Mg   -2.3603768942312
    Na   -0.4081447877808
    S(-2)   -141.57277757621
    S(6)   -4.1996241828853
  -gammas
  -Isotopes
SOLUTION_RAW       3 
  -temp              25
  -pH                6.6679990683612
  -pe                13.940929670405
  -mu                0.18894588732036
  -ah2o              0.99384869415055
  -total_h           111.03600888074
  -total_o           55.569825426918
  -cb                0.018040370917409
  -mass_water        1.0000692496766
  -total_alkalinity  0.015933397954016
  -totals
    As   1.3684503251758e-09
    C   0.021029987858216
    Ca   0.0045007226926765
    Cl   0.15728992983953
    Mg   0.0031287411791974
    Na   0.17668739475261
    S   0.00034131120847476
  -activities
    As   -13.762491251381
    C(-4)   -142.74770311141
    C(4)   -5.6193142550053
    Ca   -2.8605156201485
    Cl   -0.94813525210147
    Mg   -2.9908558698409
    Na   -0.88168038905365
    S(-2)   -142.01914144787
    S(6)   -4.1404315149295
  -gammas
  -Isotopes
SOLUTION_RAW       4 
  -temp              25
  -pH                7.4097885134641
  -pe                13.196413309357
  -mu                0.052707632084666
  -ah2o              0.99825013426089
  -total_h           111.02422966011
  -total_o           55.546237535624
  -cb                0.0058766711073819
  -mass_water        0.99999529219513
  -total_alkalinity  0.012409124548133
  -totals
    As   7.0812606801172e-09
    C   0.013222720203547
    Ca   0.00064747091321204
    Cl   0.035952681919388
    Mg   0.00046533556107164
    Na   0.05253143491416
    S   0.00025928160328213
  -activities
    As   -14.194923946492
    C(-4)   -143.5185112388
    C(4)   -4.922601538159
    Ca   -3.5572283369948
    Cl   -1.5359954062556
    Mg   -3.6875685866872
    Na   -1.3677416098094
    S(-2)   -142.60110339825
    S(6)   -3.9947429541328
  -gammas
  -Isotopes
SOLUTION_RAW       5 
  -temp              25
  -pH                8.1876188331247
  -pe                12.417801533753
  -mu                0.015785559483155
  -ah2o              0.99948096610842
  -total_h           111.01941024748
  -total_o           55.533953121079
  -cb                0.0009596942527935
  -mass_water        0.99998255250595
  -total_alkalinity  0.0091454408034962
  -totals
    As   1.195764017e-07
    C   0.0091417150173761
    Ca   0.00010855125693211
    Cl   0.0053214855847555
    Mg   7.7820426295319e-05
    Na   0.015531143839868
    S   0.00023857349443785
  -activities
    As   -14.33301002353
    C(-4)   -144.39399378034
    C(4)   -4.2470695462835
    Ca   -4.2327603288703
    Cl   -2.3296392035966
    Mg   -4.3631005785627
    Na   -1.8649691880459
    S(-2)   -143.24091726387
    S(6)   -3.860837317972
  -gammas
  -Isotopes
SOLUTION_RAW       6 
  -temp              25
  -pH                8.5225486812067
  -pe                12.082775315228
  -mu                0.011277552348614
  -ah2o              0.9996355770632
  -total_h           111.01869236889
  -total_o           55.532239980967
  -cb                0.00022880779154513
  -mass_water        0.99998145298413
  -total_alkalinity  0.008734069709038
  -totals
    As   4.7203849172856e-07
    C   0.0085718967576547
    Ca   5.2739711335017e-05
    Cl   0.0015729613201477
    Mg   3.7021491287368e-05
    Na   0.010828867090455
    S   0.00023603931823861
  -activities
    As   -14.369066035598
    C(-4)   -144.75061566139
    C(4)   -3.9343998966398
    Ca   -4.5454299785141
    Cl   -2.851308440452
    Mg   -4.6757702282064
    Na   -2.0149140469573
    S(-2)   -143.54415264199
    S(6)   -3.8296432737418
  -gammas
  -Isotopes
SOLUTION_RAW       7 
  -temp              25
  -pH                8.614445425071
  -pe                11.990867869074
  -mu                0.010749060314031
  -ah2o              0.99965500033754
  -total_h           111.01859187527
  -total_o           55.532092332285
  -cb                0.00012603531967077
  -mass_water        0.99998127148723
  -total_alkalinity  0.0087377494286179
  -totals
    As   6.9310952145644e-07
    C   0.0085226137730062
    Ca   4.3712864245862e-05
    Cl   0.0010678159887277
    Mg   3.0400613745969e-05
    Na   0.0102554625236
    S   0.00023569781652274
  -activities
    As   -14.380768049457
    C(-4)   -144.84566160303
    C(4)   -3.8457139678659
    Ca   -4.634115907288
    Cl   -3.0185165688207
    Mg   -4.7644561569803
    Na   -2.0377977449113
    S(-2)   -143.63169092906
    S(6)   -3.8253385744603
  -gammas
  -Isotopes
SOLUTION_RAW       8 
  -temp              25
  -pH                8.4831491508594
  -pe                12.1221306251
  -mu                0.0093635736088059
  -ah2o              0.99969981662951
  -total_h           111.01835372216
  -total_o           55.531104584629
  -cb                -0.00011396211858104
  -mass_water        0.99998154451464
  -total_alkalinity  0.0083205530031239
  -totals
    As   3.9244770365411e-07
    C   0.0081941145014049
    Ca   5.737066418085e-05
    Cl   0.0002482677223974
    Mg   4.0469048455505e-05
    Na   0.0087298591572799
    S   0.00023514376395438
  -activities
    As   -14.356734604093
    C(-4)   -144.72574088904
    C(4)   -3.9885955357546
    Ca   -4.4912343393992
    Cl   -3.6492827795176
    Mg   -4.6215745890916
    Na   -2.1047539754074
    S(-2)   -143.49000160293
    S(6)   -3.8151357854516
  -gammas
  -Isotopes
SOLUTION_RAW       9 
  -temp              25
  -pH                5.4379982533787
  -pe                15.231800444247
  -mu                4.1652567413481
  -ah2o              0.87525038395748
  -total_h           111.03550070711
  -total_o           55.573405779518
  -cb                0.020773770865105
  -mass_water        1.000102562411
  -total_alkalinity  0.011679456395211
  -totals
    As   2.1153087035128e-08
    C   0.019162908038168
    Ca   0.2356884224603
    Cl   3.8150357970771
    Mg   0.10554508536898
    Na   3.1706502638208
    S   0.0028141169944506
  -activities
    As   -10.579984027991
    C(-4)   -142.56184863581
    C(4)   -7.5720650391744
    Ca   -0.90776483597941
    Cl   0.33320296607724
    Mg   -1.0381050856718
    Na   0.5307620063047
    S(-2)   -141.06302625496
    S(6)   -4.1481089488365
  -gammas
  -Isotopes
SOLUTION_RAW       10 
  -temp              25
  -pH                5.6877769892856
  -pe                14.952093297222
  -mu                1.9159077404501
  -ah2o              0.9417354168398
  -total_h           111.05763213706
  -total_o           55.60933544554
  -cb                0.043940300719474
  -mass_water        1.0002663909452
  -total_alkalinity  0.015637890324873
  -totals
    As   7.0847211515686e-09
    C   0.033352646666984
    Ca   0.093804585367866
    Cl   1.7420949410741
    Mg   0.05202793193726
    Na   1.5128335303352
    S   0.001412712871169
  -activities
    As   -11.623672903908
    C(-4)   -142.23658197747
    C(4)   -6.8912788230409
    Ca   -1.5885510521129
    Cl   -0.0024370235849207
    Mg   -1.7188913018053
    Na   0.072373514079999
    S(-2)   -141.22120799939
    S(6)   -4.1687529793445
  -gammas
  -Isotopes
SOLUTION_RAW       11 
  -temp              25
  -pH                6.1454037912624
  -pe                14.471665694303
  -mu                0.61616881129635
  -ah2o              0.98065693529634
  -total_h           111.05141512968
  -total_o           55.595929957902
  -cb                0.034647832229116
  -mass_water        1.0002019053421
  -total_alkalinity  0.016596209566371
  -totals
    As   1.7096464818835e-09
    C   0.029546819747043
    Ca   0.022963666609096
    Cl   0.54825987670602
    Mg   0.014845747192486
    Na   0.52509634265759
    S   0.00060562502480185
  -activities
    As   -12.940978037893
    C(-4)   -142.35501011125
    C(4)   -6.2240953250554
    Ca   -2.2557345500985
    Cl   -0.46205249424532
    Mg   -2.3860747997908
    Na   -0.43199053121258
    S(-2)   -141.59754590243
    S(6)   -4.1995178092607
  -gammas
  -Isotopes
SOLUTION_RAW       12 
  -temp              25
  -pH                6.7010102557742
  -pe                13.9076726132
  -mu                0.17704386211398
  -ah2o              0.99424172249787
  -total_h           111.03436503244
  -total_o           55.566338107939
  -cb                0.016360994214046
  -mass_water        1.0000602399783
  -total_alkalinity  0.015289814575644
  -totals
    As   1.4146306859065e-09
    C   0.019871561677926
    Ca   0.0042275807946775
    Cl   0.14719782815087
    Mg   0.0029466717365027
    Na   0.16516911025259
    S   0.00033448847988225
  -activities
    As   -13.795026463137
    C(-4)   -142.79329268279
    C(4)   -5.6003332750551
    Ca   -2.8794966000988
    Cl   -0.97392386674283
    Mg   -3.0098368497911
    Na   -0.90889630563252
    S(-2)   -142.04518348541
    S(6)   -4.134742478342
  -gammas
  -Isotopes
SOLUTION_RAW       13 
  -temp              25
  -pH                7.4454793927334
  -pe                13.160601109543
  -mu                0.047214519317676
  -ah2o              0.99843648135769
  -total_h           111.02326408896
  -total_o           55.5436245355
  -cb                0.0048972393421348
  -mass_water        0.99999343471634
  -total_alkalinity  0.011647695539136
  -totals
    As   7.7947176647498e-09
    C   0.012353568631799
    Ca   0.00061108069241292
    Cl   0.031727710682252
    Mg   0.00044000045596306
    Na   0.046683341715195
    S   0.00025642532685303
  -activities
    As   -14.2071679701
    C(-4)   -143.57702032873
    C(4)   -4.9104562017839
    Ca   -3.5693736733699
    Cl   -1.5864055520887
    Mg   -3.6997139230623
    Na   -1.4155903352296
    S(-2)   -142.6237091079
    S(6)   -3.9823039508369
  -gammas
  -Isotopes
SOLUTION_RAW       14 
  -temp              25
  -pH                8.0574569375669
  -pe                12.547941060659
  -mu                0.014885596494647
  -ah2o              0.99951274114861
  -total_h           111.01923350387
  -total_o           55.533213602644
  -cb                0.00078132750544507
  -mass_water        0.99998322209761
  -total_alkalinity  0.008831119277133
  -totals
    As   6.866864815971e-08
    C   0.0088955072602556
    Ca   0.00014643328901792
    Cl   0.0047866689188648
    Mg   0.00010562888831715
    Na   0.014371483882576
    S   0.00023821193357744
  -activities
    As   -14.314251828479
    C(-4)   -144.2748432192
    C(4)   -4.3883803151571
    Ca   -4.0914495599967
    Cl   -2.3742340180235
    Mg   -4.2217898096891
    Na   -1.8972078850179
    S(-2)   -143.10709853808
    S(6)   -3.8573042240546
  -gammas
  -Isotopes
SOLUTION_RAW       15 
  -temp              25
  -pH                8.3959313715057
  -pe                12.209365867113
  -mu                0.010167046152433
  -ah2o              0.99967189939789
  -total_h           111.01851094808
  -total_o           55.531465457215
  -cb                4.5762923604425e-05
  -mass_water        0.99998176708873
  -total_alkalinity  0.0084016711710523
  -totals
    As   2.7316251014621e-07
    C   0.008314279050337
    Ca   6.8942477221051e-05
    Cl   0.00090066788502595
    Mg   4.8954525948416e-05
    Na   0.0095837507692854
    S   0.00023558481671575
  -activities
    As   -14.347882095619
    C(-4)   -144.63314068621
    C(4)   -4.0703263524689
    Ca   -4.4095035226849
    Cl   -3.0912965997451
    Mg   -4.5398437723773
    Na   -2.065655076331
    S(-2)   -143.40988802656
    S(6)   -3.8221470592394
  -gammas
  -Isotopes
SOLUTION_RAW       16 
  -temp              25
  -pH                8.438536462077
  -pe                12.166747997372
  -mu                0.0095854599073709
  -ah2o              0.99969189511659
  -total_h           111.01840392095
  -total_o           55.531193423976
  -cb                -6.2919843949491e-05
  -mass_water        0.99998165301961
  -total_alkalinity  0.0083289326004661
  -totals
    As   3.2545705884716e-07
    C   0.008223733323976
    Ca   6.2981208608886e-05
    Cl   0.00044198521367104
    Mg   4.4588682856437e-05
    Na   0.0089637330962424
    S   0.0002352747259633
  -activities
    As   -14.351513073846
    C(-4)   -144.67955517438
    C(4)   -4.0316080015388
    Ca   -4.448221873615
    Cl   -3.3992616056697
    Mg   -4.5785621233073
    Na   -2.0936366728413
    S(-2)   -143.44752582711
    S(6)   -3.8172489226494
  -gammas
  -Isotopes
SOLUTION_RAW       17 
  -temp              25
  -pH                8.3583055879524
  -pe                12.246967890603
  -mu                0.0091370809014992
  -ah2o              0.99970663007249
  -total_h           111.01833526469
  -total_o           55.530863482607
  -cb                -0.00013215562212196
  -mass_water        0.99998187257894
  -total_alkalinity  0.0081786236624581
  -totals
    As   2.2991005008873e-07
    C   0.0081139918736405
    Ca   7.475194371809e-05
    Cl   0.00018196447507687
    Mg   5.3258169985359e-05
    Na   0.0084428400778367
    S   0.00023509893989025
  -activities
    As   -14.340408890138
    C(-4)   -144.60341549148
    C(4)   -4.1159978881371
    Ca   -4.3638319870168
    Cl   -3.7837336954626
    Mg   -4.4941722367091
    Na   -2.1185999316524
    S(-2)   -143.36423225923
    S(6)   -3.8142473477107
  -gammas
  -Isotopes
SOLUTION_RAW       18 
  -temp              25
  -pH                5.4446290245399
  -pe                15.222840659109
  -mu                3.9302113593433
  -ah2o              0.88218157129882
  -total_h           111.03819978363
  -total_o           55.57822808009
  -cb                0.023815452981571
  -mass_water        1.0001216338187
  -total_alkalinity  0.01226217271479
  -totals
    As   2.0424211886818e-08
    C   0.021040640208494
    Ca   0.22013426245715
    Cl   3.5984656397773
    Mg   0.1006537908998
    Na   2.9983025902388
    S   0.0026677055273923
  -activities
    As   -10.634938275688
    C(-4)   -142.50423554879
    C(4)   -7.5095455371507
    Ca   -0.9702843380031
    Cl   0.30700114592877
    Mg   -1.1006245876954
    Na   0.49105932973779
    S(-2)   -141.06387237016
    S(6)   -4.1472537304572
  -gammas
  -Isotopes
SOLUTION_RAW       19 
  -temp              25
  -pH                5.7263736567806
  -pe                14.910824350308
  -mu                1.7542083504476
  -ah2o              0.94655560514118
  -total_h           111.05772649574
  -total_o           55.608901564266
  -cb                0.043684611211099
  -mass_water        1.0002667832588
  -total_alkalinity  0.01569026863195
  -totals
    As   6.0925332680171e-09
    C   0.033295952566585
    Ca   0.08447948763941
    Cl   1.5935071322782
    Mg   0.04766397141188
    Na   1.3912196213575
    S   0.0013122606231409
  -activities
    As   -11.752541523851
    C(-4)   -142.23847026941
    C(4)   -6.8307003760883
    Ca   -1.6491294990655
    Cl   -0.038926539988911
    Mg   -1.7794697487578
    Na   0.02773824872621
    S(-2)   -141.25142386372
    S(6)   -4.172881524847
  -gammas
  -Isotopes
SOLUTION_RAW       20 
  -temp              25
  -pH                6.1738556531325
  -pe                14.442597607792
  -mu                0.58397607016249
  -ah2o              0.9816613645643
  -total_h           111.0493666178
  -total_o           55.592092064953
  -cb                0.032481428854235
  -mass_water        1.0001869898286
  -total_alkalinity  0.016204006103167
  -totals
    As   1.6476482345898e-09
    C   0.028276232678216
    Ca   0.02159402953636
    Cl   0.51945181295104
    Mg   0.014025806545195
    Na   0.49806987625868
    S   0.00058614943285202
  -activities
    As   -12.996322111976
    C(-4)   -142.3846412496
    C(4)   -6.2004187537148
    Ca   -2.279411121439
    Cl   -0.48300721240501
    Mg   -2.4097513711314
    Na   -0.45474269973327
    S(-2)   -141.62247258138
    S(6)   -4.1991440468341
  -gammas
  -Isotopes
SOLUTION_RAW       21 
  -temp              25
  -pH                6.7085976538112
  -pe                13.900039329567
  -mu                0.17531728107414
  -ah2o              0.99430934189186
  -total_h           111.03340665769
  -total_o           55.564121784506
  -cb                0.015395604943635
  -mass_water        1.0000562243124
  -total_alkalinity  0.014776487592396
  -totals
    As   1.4307980082255e-09
    C   0.019132463368753
    Ca   0.0042755519556321
    Cl   0.1463391817187
    Mg   0.0029814136396738
    Na   0.16266516048486
    S   0.00033390799497401
  -activities
    As   -13.80128288993
    C(-4)   -142.81502595531
    C(4)   -5.6071702293765
    Ca   -2.8726596457774
    Cl   -0.97601206498428
    Mg   -3.0029998954697
    Na   -0.91516404881209
    S(-2)   -142.05173812224
    S(6)   -4.1339586515029
  -gammas
  -Isotopes
SOLUTION_RAW       22 
  -temp              25
  -pH                7.416239083884
  -pe                13.189856598594
  -mu                0.048239927168556
  -ah2o              0.99840597122024
  -total_h           111.02307845705
  -total_o           55.542969789137
  -cb                0.0047151309785493
  -mass_water        0.9999940068545
  -total_alkalinity  0.011392741118267
  -totals
    As   7.0412638865515e-09
    C   0.012134650370925
    Ca   0.0006713981457898
    Cl   0.033004963762533
    Mg   0.00048345617698431
    Na   0.047317711873364
    S   0.00025728880914937
  -activities
    As   -14.199769645283
    C(-4)   -143.55825979898
    C(4)   -4.9500946618784
    Ca   -3.5297352132755
    Cl   -1.5700136113667
    Mg   -3.6600754629678
    Na   -1.4103160801257
    S(-2)   -142.59757464843
    S(6)   -3.9853414326735
  -gammas
  -Isotopes
SOLUTION_RAW       23 
  -temp              25
  -pH                8.0006143514226
  -pe                12.604808201206
  -mu                0.016089997931709
  -ah2o              0.99947272102828
  -total_h           111.01934560237
  -total_o           55.533471806406
  -cb                0.00089676857461016
  -mass_water        0.99998358965212
  -total_alkalinity  0.0088875067434484
  -totals
    As   5.4854915538649e-08
    C   0.0089810910176373
    Ca   0.00016782503781496
    Cl   0.00585609493487
    Mg   0.00012123595784501
    Na   0.015540172946814
    S   0.00023893491514474
  -activities
    As   -14.308003431086
    C(-4)   -144.21653053221
    C(4)   -4.4436083884453
    Ca   -4.0362214867086
    Cl   -2.2885282271881
    Mg   -4.1665617364009
    Na   -1.8649391967304
    S(-2)   -143.0579799062
    S(6)   -3.8649010740816
  -gammas
  -Isotopes
SOLUTION_RAW       24 
  -temp              25
  -pH                8.4677377492601
  -pe                12.137547478263
  -mu                0.0096080964179275
  -ah2o              0.99969138851205
  -total_h           111.01840127816
  -total_o           55.531230099139
  -cb                -6.57052862979e-05
  -mass_water        0.99998158065851
  -total_alkalinity  0.0083560142809322
  -totals
    As   3.6857264323113e-07
    C   0.0082359049213796
    Ca   5.9237441499167e-05
    Cl   0.00043563849869962
    Mg   4.1835517170809e-05
    Na   0.0089947110192231
    S   0.00023527043529293
  -activities
    As   -14.355431763962
    C(-4)   -144.70851171181
    C(4)   -4.0021548089908
    Ca   -4.477675066163
    Cl   -3.4055902605372
    Mg   -4.6080153158554
    Na   -2.0922361528591
    S(-2)   -143.47670905316
    S(6)   -3.8172231634606
  -gammas
  -Isotopes
SOLUTION_RAW       25 
  -temp              25
  -pH                8.4512256254625
  -pe                12.154051694402
  -mu                0.009270503194406
  -ah2o              0.99970266163042
  -total_h           111.01834173485
  -total_o           55.53101776626
  -cb                -0.00012592296844614
  -mass_water        0.99998162056748
  -total_alkalinity  0.0082748286172868
  -totals
    As   3.4226244394912e-07
    C   0.0081652581138117
    Ca   6.1349735070994e-05
    Cl   0.00021084856943996
    Mg   4.3397620832707e-05
    Na   0.0086208387026734
    S   0.00023511846687809
  -activities
    As   -14.352232137284
    C(-4)   -144.69472599992
    C(4)   -4.0214430876804
    Ca   -4.4583867874734
    Cl   -3.7200348526853
    Mg   -4.5887270371658
    Na   -2.1099628479419
    S(-2)   -143.45751703431
    S(6)   -3.8145886866177
  -gammas
  -Isotopes
SOLUTION_RAW       26 
  -temp              25
  -pH                8.3628514992759
  -pe                12.242420972851
  -mu                0.0090925517703728
  -ah2o              0.99970815534397
  -total_h           111.01832502857
  -total_o           55.530838038285
  -cb                -0.00014251607373151
  -mass_water        0.99998185864904
  -total_alkalinity  0.0081720131036141
  -totals
    As   2.3423043801523e-07
    C   0.0081055184773881
    Ca   7.4037609252163e-05
    Cl   0.00014908620237204
    Mg   5.2734309332811e-05
    Na   0.0083954270508318
    S   0.00023507671265453
  -activities
    As   -14.340929006065
    C(-4)   -144.60833462133
    C(4)   -4.1118314753286
    Ca   -4.3679983998252
    Cl   -3.8701870639576
    Mg   -4.4983386495175
    Na   -2.1209604827592
    S(-2)   -143.36835938851
    S(6)   -3.8138342683947
  -gammas
  -Isotopes
SOLUTION_RAW       27 
  -temp              25
  -pH                5.4526959922889
  -pe                15.212035802795
  -mu                3.6788889181551
  -ah2o              0.8895749861132
  -total_h           111.04161369769
  -total_o           55.584351643284
  -cb                0.027648336377381
  -mass_water        1.0001460436714
  -total_alkalinity  0.012967238663732
  -totals
    As   1.9471630259555e-08
    C   0.02337971607052
    Ca   0.20349989172566
    Cl   3.3667983340113
    Mg   0.095162556111442
    Na   2.8151112082262
    S   0.0025110876881954
  -activities
    As   -10.699014344904
    C(-4)   -142.44056468584
    C(4)   -7.440770111024
    Ca   -1.0390597641298
    Cl   0.27744499648766
    Mg   -1.1694000138221
    Na   0.44736175837031
    S(-2)   -141.06420595311
    S(6)   -4.1469251282808
  -gammas
  -Isotopes
SOLUTION_RAW       28 
  -temp              25
  -pH                5.7436998891642
  -pe                14.891958135814
  -mu                1.6616257500367
  -ah2o              0.94928876861074
  -total_h           111.05897852579
  -total_o           55.610919008852
  -cb                0.044811355396201
  -mass_water        1.0002754294657
  -total_alkalinity  0.015983360536828
  -totals
    As   5.6196668827829e-09
    C   0.034031751526472
    Ca   0.079001786282274
    Cl   1.5079770166197
    Mg   0.045014138681626
    Na   1.3232487648452
    S   0.0012544383002956
  -activities
    As   -11.819044327464
    C(-4)   -142.22712454751
    C(4)   -6.7932654297385
    Ca   -1.6865644454153
    Cl   -0.061395013241284
    Mg   -1.8169046951077
    Na   0.0014377837427101
    S(-2)   -141.26384971333
    S(6)   -4.1752921638454
  -gammas
  -Isotopes
SOLUTION_RAW       29 
  -temp              25
  -pH                6.1610198863431
  -pe                14.455695777275
  -mu                0.59753187526593
  -ah2o              0.98122957236929
  -total_h           111.05048298237
  -total_o           55.594233707549
  -cb                0.033659273075412
  -mass_water        1.0001947571453
  -total_alkalinity  0.016457966903779
  -totals
    As   1.6726960298442e-09
    C   0.028988485501755
    Ca   0.022086062387098
    Cl   0.53151444995953
    Mg   0.01431688981605
    Na   0.5100143958794
    S   0.00059430433713708
  -activities
    As   -12.972100441979
    C(-4)   -142.36884594421
    C(4)   -6.208768970562
    Ca   -2.2710609045918
    Cl   -0.47410392366928
    Mg   -2.4014011542842
    Na   -0.44455883623835
    S(-2)   -141.61099005518
    S(6)   -4.1991623457958
  -gammas
  -Isotopes
SOLUTION_RAW       30 
  -temp              25
  -pH                6.6417301842201
  -pe                13.967430035781
  -mu                0.20159022444433
  -ah2o              0.99346397811501
  -total_h           111.03562173719
  -total_o           55.568541385538
  -cb                0.017692914653684
  -mass_water        1.0000703586521
  -total_alkalinity  0.015421090206036
  -totals
    As   1.3480649555922e-09
    C   0.020596341224374
    Ca   0.0050632579615383
    Cl   0.16973111710569
    Mg   0.00351052313721
    Na   0.18639700517197
    S   0.00034972202799632
  -activities
    As   -13.73263030858
    C(-4)   -142.74141844719
    C(4)   -5.6642199479934
    Ca   -2.8156099271604
    Cl   -0.91809154623739
    Mg   -2.9459501768527
    Na   -0.86031966150166
    S(-2)   -141.99974667529
    S(6)   -4.1461263448921
  -gammas
  -Isotopes
SOLUTION_RAW       31 
  -temp              25
  -pH                7.2714616068285
  -pe                13.334960235188
  -mu                0.06391692377042
  -ah2o              0.99788701021153
  -total_h           111.02489295982
  -total_o           55.54738469791
  -cb                0.0065741690473173
  -mass_water        1.0000005433483
  -total_alkalinity  0.012473641343579
  -totals
    As   4.6167261924434e-09
    C   0.013600582883988
    Ca   0.0009425595228765
    Cl   0.046340988761319
    Mg   0.0006756849163173
    Na   0.062684924051166
    S   0.00026630458030584
  -activities
    As   -14.149941815194
    C(-4)   -143.38676061083
    C(4)   -5.0662170029549
    Ca   -3.4136128721989
    Cl   -1.4328517100286
    Mg   -3.5439531218912
    Na   -1.2968918809951
    S(-2)   -142.48797515791
    S(6)   -4.0188127817681
  -gammas
  -Isotopes
SOLUTION_RAW       32 
  -temp              25
  -pH                8.3653719955411
  -pe                12.239976146704
  -mu                0.012520016727034
  -ah2o              0.99959198772049
  -total_h           111.01881554184
  -total_o           55.532382629881
  -cb                0.00035652477911896
  -mass_water        0.99998184426357
  -total_alkalinity  0.0087018929912131
  -totals
    As   2.4550843890061e-07
    C   0.0086191813324199
    Ca   7.4214482056024e-05
    Cl   0.0028033018973952
    Mg   5.2759853578864e-05
    Na   0.012081758675935
    S   0.00023687108551924
  -activities
    As   -14.350552882595
    C(-4)   -144.59173230041
    C(4)   -4.0897348614776
    Ca   -4.3900950136762
    Cl   -2.6026295097268
    Mg   -4.5204352633686
    Na   -1.9692040983417
    S(-2)   -143.39651630705
    S(6)   -3.839068093243
  -gammas
  -Isotopes
SOLUTION_RAW       33 
  -temp              25
  -pH                8.4664266687991
  -pe                12.138862912053
  -mu                0.0098077574950511
  -ah2o              0.99968461852847
  -total_h           111.01842771214
  -total_o           55.531312303921
  -cb                -3.8760901497685e-05
  -mass_water        0.99998158236677
  -total_alkalinity  0.0083838300800397
  -totals