#PHAST restart file
#Prefix: print_check_transient
#Date: Wed Jan 10 17:20:55 2007
#Current model time: 31000
#nx, ny, nz: 16, 9, 3
SOLUTION_RAW       -2 
  -temp              25
  -pH                7
  -pe                4
  -mu                1e-07
  -ah2o              1
  -total_h           111.05057780902
  -total_o           55.594726871986
  -cb                0.033804974726729
  -mass_water        1
  -total_alkalinity  0
  -totals
    As   3.1008185931125e-09
    C   0.029173748115056
    Ca   0.021817206681054
    Cl   0.51892173535688
    Mg   0.013989735565937
    Na   0.49895957942259
    S   0.00058579107880505
  -activities
    As   -10.508523640507
    C(-4)   -3.5350077710457
    C(4)   -3.5350077710457
    Ca   -3.6612008541446
    Cl   -2.2848981382319
    Mg   -3.8541904944674
    Na   -2.3019346350274
    S(-2)   -5.2322572466101
    S(6)   -5.2322572466101
  -gammas
  -Isotopes
SOLUTION_RAW       0 Solution after simulation 4.
  -temp              25
  -pH                5.4364970252904
  -pe                15.234422850158
  -mu                4.2884791004099
  -ah2o              0.87161395578146
  -total_h           111.03411758509
  -total_o           55.570898130391
  -cb                0.0192108292341
  -mass_water        1.0000930152056
  -total_alkalinity  0.011355840630038
  -totals
    As   2.1396312188787e-08
    C   0.018185267984891
    Ca   0.24385161665493
    Cl   3.9285912831292
    Mg   0.10802790476243
    Na   3.2611807030903
    S   0.0028908857677039
  -activities
    As   -10.556128297915
    C(-4)   -142.59460980161
    C(4)   -7.6042836213392
    Ca   -0.87554625381467
    Cl   0.34644359036524
    Mg   -1.005886503507
    Na   0.5511373279234
    S(-2)   -141.06393162231
    S(6)   -4.1487786515405
  -gammas
  -Isotopes
SOLUTION_RAW       1 Solution after simulation 4.
  -temp              25
  -pH                5.6628782781609
  -pe                14.978697299243
  -mu                2.0206496464602
  -ah2o              0.93860982336686
  -total_h           111.05773028035
  -total_o           55.609949366232
  -cb                0.044280084389786
  -mass_water        1.0002670958074
  -total_alkalinity  0.015656789707399
  -totals
    As   7.7985764187693e-09
    C   0.033502888031364
    Ca   0.099877133457498
    Cl   1.8382644460488
    Mg   0.054793167024852
    Na   1.59181618281
    S   0.001477727915039
  -activities
    As   -11.541334050982
    C(-4)   -142.23366792426
    C(4)   -6.9288512553345
    Ca   -1.5509786198194
    Cl   0.019682815345961
    Mg   -1.6813188695117
    Na   0.1000055868584
    S(-2)   -141.20166375323
    S(6)   -4.1662403330507
  -gammas
  -Isotopes
SOLUTION_RAW       2 Solution after simulation 4.
  -temp              25
  -pH                6.117062558972
  -pe                14.500686465145
  -mu                0.65194030747982
  -ah2o              0.97954560295648
  -total_h           111.05336877805
  -total_o           55.599556587361
  -cb                0.036725948473689
  -mass_water        1.0002164611599
  -total_alkalinity  0.016933416116479
  -totals
    As   1.7853596780943e-09
    C   0.030744735588962
    Ca   0.024518752895358
    Cl   0.58046674989414
    Mg   0.015770372837598
    Na   0.55480266153188
    S   0.00062739836406224
  -activities
    As   -12.882855752135
    C(-4)   -142.32798452797
    C(4)   -6.2497932306157
    Ca   -2.2300366445381
    Cl   -0.43985166025585
    Mg   -2.3603768942305
    Na   -0.40814478778087
    S(-2)   -141.57277757617
    S(6)   -4.1996241828853
  -gammas
  -Isotopes
SOLUTION_RAW       3 Solution after simulation 4.
  -temp              25
  -pH                6.6679990683612
  -pe                13.940929670405
  -mu                0.18894588732032
  -ah2o              0.99384869415056
  -total_h           111.03600888074
  -total_o           55.569825426918
  -cb                0.018040370917305
  -mass_water        1.0000692496766
  -total_alkalinity  0.015933397954004
  -totals
    As   1.3684503251756e-09
    C   0.0210299878582
    Ca   0.0045007226926794
    Cl   0.15728992983955
    Mg   0.0031287411791995
    Na   0.1766873947525
    S   0.00034131120847507
  -activities
    As   -13.762491251381
    C(-4)   -142.74770311142
    C(4)   -5.6193142550056
    Ca   -2.8605156201482
    Cl   -0.94813525210142
    Mg   -2.9908558698406
    Na   -0.88168038905391
    S(-2)   -142.01914144787
    S(6)   -4.1404315149291
  -gammas
  -Isotopes
SOLUTION_RAW       4 Solution after simulation 4.
  -temp              25
  -pH                7.4097885134658
  -pe                13.196413309357
  -mu                0.05270763208462
  -ah2o              0.99825013426089
  -total_h           111.02422966011
  -total_o           55.546237535623
  -cb                0.0058766711073214
  -mass_water        0.99999529219513
  -total_alkalinity  0.012409124548114
  -totals
    As   7.0812606801594e-09
    C   0.013222720203523
    Ca   0.00064747091321027
    Cl   0.035952681919392
    Mg   0.00046533556107038
    Na   0.052531434914091
    S   0.00025928160328241
  -activities
    As   -14.194923946493
    C(-4)   -143.51851123881
    C(4)   -4.922601538158
    Ca   -3.5572283369959
    Cl   -1.5359954062555
    Mg   -3.6875685866882
    Na   -1.36774160981
    S(-2)   -142.60110339827
    S(6)   -3.9947429541321
  -gammas
  -Isotopes
SOLUTION_RAW       5 Solution after simulation 4.
  -temp              25
  -pH                8.1876188331572
  -pe                12.417801533719
  -mu                0.015785559482827
  -ah2o              0.99948096610843
  -total_h           111.01941024748
  -total_o           55.533953121078
  -cb                0.00095969425262308
  -mass_water        0.99998255250595
  -total_alkalinity  0.0091454408032522
  -totals
    As   1.1957640171592e-07
    C   0.009141715017116
    Ca   0.00010855125692664
    Cl   0.005321485584756
    Mg   7.7820426291338e-05
    Na   0.015531143839473
    S   0.00023857349443813
  -activities
    As   -14.333010023534
    C(-4)   -144.39399378038
    C(4)   -4.2470695462628
    Ca   -4.232760328891
    Cl   -2.3296392035961
    Mg   -4.3631005785833
    Na   -1.8649691880564
    S(-2)   -143.24091726389
    S(6)   -3.860837317969
  -gammas
  -Isotopes
SOLUTION_RAW       6 Solution after simulation 4.
  -temp              25
  -pH                8.5225486821773
  -pe                12.082775314257
  -mu                0.011277552350456
  -ah2o              0.99963557706315
  -total_h           111.01869236889
  -total_o           55.53223998097
  -cb                0.00022880779179028
  -mass_water        0.99998145298413
  -total_alkalinity  0.0087340697105604
  -totals
    As   4.7203849367243e-07
    C   0.0085718967585884
    Ca   5.2739711228059e-05
    Cl   0.001572961320148
    Mg   3.7021491208767e-05
    Na   0.010828867092595
    S   0.00023603931823824
  -activities
    As   -14.369066035746
    C(-4)   -144.75061595562
    C(4)   -3.9343998956422
    Ca   -4.5454299795117
    Cl   -2.8513084404554
    Mg   -4.675770229204
    Na   -2.0149140468769
    S(-2)   -143.5441530717
    S(6)   -3.829643273751
  -gammas
  -Isotopes
SOLUTION_RAW       7 Solution after simulation 4.
  -temp              25
  -pH                8.6144454260619
  -pe                11.990867868083
  -mu                0.010749060316033
  -ah2o              0.99965500033749
  -total_h           111.01859187527
  -total_o           55.532092332287
  -cb                0.00012603531984668
  -mass_water        0.99998127148723
  -total_alkalinity  0.0087377494302197
  -totals
    As   6.9310952436577e-07
    C   0.0085226137739284
    Ca   4.3712864158305e-05
    Cl   0.0010678159887279
    Mg   3.0400613681604e-05
    Na   0.010255462525684
    S   0.00023569781652259
  -activities
    As   -14.380768049617
    C(-4)   -144.84566160185
    C(4)   -3.8457139668553
    Ca   -4.6341159082986
    Cl   -3.0185165688246
    Mg   -4.7644561579909
    Na   -2.0377977448294
    S(-2)   -143.6316909269
    S(6)   -3.8253385744717
  -gammas
  -Isotopes
SOLUTION_RAW       8 Solution after simulation 4.
  -temp              25
  -pH                8.4831491585361
  -pe                12.122130617423
  -mu                0.0093635736203903
  -ah2o              0.99969981662919
  -total_h           111.01835372217
  -total_o           55.53110458465
  -cb                -0.00011396211649786
  -mass_water        0.99998154451462
  -total_alkalinity  0.0083205530142553
  -totals
    As   3.9244771649715e-07
    C   0.0081941145084324
    Ca   5.7370663247592e-05
    Cl   0.00024826772239769
    Mg   4.0469047768881e-05
    Na   0.0087298591737533
    S   0.00023514376395732
  -activities
    As   -14.356734605172
    C(-4)   -144.72574254549
    C(4)   -3.9885955278352
    Ca   -4.4912343473186
    Cl   -3.6492827795416
    Mg   -4.6215745970109
    Na   -2.1047539746268
    S(-2)   -143.49000406126
    S(6)   -3.815135785495
  -gammas
  -Isotopes
SOLUTION_RAW       9 Solution after simulation 4.
  -temp              25
  -pH                5.4379982533781
  -pe                15.231800444243
  -mu                4.1652567413496
  -ah2o              0.87525038395745
  -total_h           111.03550070711
  -total_o           55.573405779518
  -cb                0.020773770866919
  -mass_water        1.000102562411
  -total_alkalinity  0.011679456395218
  -totals
    As   2.115308703516e-08
    C   0.019162908038179
    Ca   0.23568842246065
    Cl   3.8150357970772
    Mg   0.10554508536912
    Na   3.1706502638217
    S   0.0028141169944513
  -activities
    As   -10.57998402799
    C(-4)   -142.56184863577
    C(4)   -7.5720650391753
    Ca   -0.90776483597855
    Cl   0.33320296607726
    Mg   -1.0381050856709
    Na   0.53076200630492
    S(-2)   -141.06302625492
    S(6)   -4.1481089488368
  -gammas
  -Isotopes
SOLUTION_RAW       10 Solution after simulation 4.
  -temp              25
  -pH                5.6877769892851
  -pe                14.952093297219
  -mu                1.9159077404505
  -ah2o              0.94173541683979
  -total_h           111.05763213706
  -total_o           55.60933544554
  -cb                0.043940300719953
  -mass_water        1.0002663909452
  -total_alkalinity  0.015637890324876
  -totals
    As   7.0847211515755e-09
    C   0.033352646667003
    Ca   0.093804585367984
    Cl   1.7420949410741
    Mg   0.052027931937323
    Na   1.5128335303354
    S   0.0014127128711691
  -activities
    As   -11.623672903907
    C(-4)   -142.23658197744
    C(4)   -6.8912788230415
    Ca   -1.5885510521123
    Cl   -0.0024370235849078
    Mg   -1.7188913018047
    Na   0.072373514080081
    S(-2)   -141.22120799936
    S(6)   -4.1687529793447
  -gammas
  -Isotopes
SOLUTION_RAW       11 Solution after simulation 4.
  -temp              25
  -pH                6.1454037912623
  -pe                14.4716656943
  -mu                0.61616881129637
  -ah2o              0.98065693529634
  -total_h           111.05141512968
  -total_o           55.595929957902
  -cb                0.034647832229018
  -mass_water        1.0002019053421
  -total_alkalinity  0.016596209566363
  -totals
    As   1.7096464818836e-09
    C   0.029546819747031
    Ca   0.022963666609113
    Cl   0.54825987670606
    Mg   0.014845747192497
    Na   0.52509634265747
    S   0.00060562502480205
  -activities
    As   -12.940978037893
    C(-4)   -142.35501011122
    C(4)   -6.2240953250557
    Ca   -2.2557345500981
    Cl   -0.46205249424529
    Mg   -2.3860747997905
    Na   -0.43199053121268
    S(-2)   -141.59754590241
    S(6)   -4.1995178092606
  -gammas
  -Isotopes
SOLUTION_RAW       12 Solution after simulation 4.
  -temp              25
  -pH                6.7010102557751
  -pe                13.907672613197
  -mu                0.17704386211391
  -ah2o              0.99424172249787
  -total_h           111.03436503244
  -total_o           55.566338107939
  -cb                0.016360994213908
  -mass_water        1.0000602399783
  -total_alkalinity  0.01528981457563
  -totals
    As   1.4146306859093e-09
    C   0.019871561677899
    Ca   0.004227580794671
    Cl   0.14719782815088
    Mg   0.0029466717364982
    Na   0.16516911025248
    S   0.00033448847988264
  -activities
    As   -13.795026463137
    C(-4)   -142.79329268277
    C(4)   -5.6003332750545
    Ca   -2.8794966000994
    Cl   -0.97392386674277
    Mg   -3.0098368497917
    Na   -0.90889630563281
    S(-2)   -142.04518348539
    S(6)   -4.1347424783413
  -gammas
  -Isotopes
SOLUTION_RAW       13 Solution after simulation 4.
  -temp              25
  -pH                7.4454793927371
  -pe                13.160601109538
  -mu                0.047214519317625
  -ah2o              0.9984364813577
  -total_h           111.02326408896
  -total_o           55.5436245355
  -cb                0.0048972393420744
  -mass_water        0.99999343471634
  -total_alkalinity  0.011647695539116
  -totals
    As   7.7947176648547e-09
    C   0.012353568631771
    Ca   0.00061108069240855
    Cl   0.031727710682256
    Mg   0.00044000045595991
    Na   0.046683341715133
    S   0.00025642532685332
  -activities
    As   -14.207167970101
    C(-4)   -143.57702032873
    C(4)   -4.9104562017809
    Ca   -3.5693736733729
    Cl   -1.5864055520886
    Mg   -3.6997139230653
    Na   -1.4155903352301
    S(-2)   -142.62370910789
    S(6)   -3.9823039508361
  -gammas
  -Isotopes
SOLUTION_RAW       14 Solution after simulation 4.
  -temp              25
  -pH                8.0574569375689
  -pe                12.547941060657
  -mu                0.014885596494544
  -ah2o              0.99951274114862
  -total_h           111.01923350387
  -total_o           55.533213602644
  -cb                0.00078132750540027
  -mass_water        0.99998322209761
  -total_alkalinity  0.0088311192770494
  -totals
    As   6.8668648160212e-08
    C   0.0088955072601704
    Ca   0.00014643328901831
    Cl   0.0047866689188653
    Mg   0.00010562888831744
    Na   0.014371483882447
    S   0.00023821193357757
  -activities
    As   -14.314251828479
    C(-4)   -144.27484322012
    C(4)   -4.3883803151591
    Ca   -4.0914495599948
    Cl   -2.3742340180232
    Mg   -4.2217898096871
    Na   -1.8972078850216
    S(-2)   -143.10709853932
    S(6)   -3.8573042240536
  -gammas
  -Isotopes
SOLUTION_RAW       15 Solution after simulation 4.
  -temp              25
  -pH                8.3959313677647
  -pe                12.209365870852
  -mu                0.010167046151299
  -ah2o              0.9996718993979
  -total_h           111.01851094808
  -total_o           55.531465457214
  -cb                4.5762925229894e-05
  -mass_water        0.99998176708874
  -total_alkalinity  0.0084016711690551
  -totals
    As   2.7316250579928e-07
    C   0.00831427905016
    Ca   6.8942477762501e-05
    Cl   0.00090066788502602
    Mg   4.8954526346374e-05
    Na   0.0095837507670296
    S   0.00023558481671526
  -activities
    As   -14.347882095133
    C(-4)   -144.6331394615
    C(4)   -4.0703263561851
    Ca   -4.4095035189688
    Cl   -3.0912965997428
    Mg   -4.5398437686611
    Na   -2.0656550764253
    S(-2)   -143.40988628394
    S(6)   -3.8221470592636
  -gammas
  -Isotopes
SOLUTION_RAW       16 Solution after simulation 4.
  -temp              25
  -pH                8.4385364625934
  -pe                12.166747996854
  -mu                0.0095854599081062
  -ah2o              0.99969189511656
  -total_h           111.01840392095
  -total_o           55.531193423977
  -cb                -6.2919843874565e-05
  -mass_water        0.99998165301961
  -total_alkalinity  0.008328932601116
  -totals
    As   3.2545705956176e-07
    C   0.0082237333243632
    Ca   6.2981208539634e-05
    Cl   0.00044198521367112
    Mg   4.4588682805497e-05
    Na   0.0089637330972083
    S   0.00023527472596322
  -activities
    As   -14.351513073919
    C(-4)   -144.67955512284
    C(4)   -4.0316080010091
    Ca   -4.4482218741447
    Cl   -3.3992616056711
    Mg   -4.578562123837
    Na   -2.0936366727969
    S(-2)   -143.44752575599
    S(6)   -3.8172489226518
  -gammas
  -Isotopes
SOLUTION_RAW       17 Solution after simulation 4.
  -temp              25
  -pH                8.3583055858137
  -pe                12.246967892741
  -mu                0.0091370809001103
  -ah2o              0.99970663007253
  -total_h           111.0183352647
  -total_o           55.530863482606
  -cb                -0.0001321556217298
  -mass_water        0.99998187257895
  -total_alkalinity  0.0081786236609111
  -totals
    As   2.2991004798699e-07
    C   0.0081139918730746
    Ca   7.4751944059395e-05
    Cl   0.00018196447507689
    Mg   5.325817023642e-05
    Na   0.0084428400754952
    S   0.00023509893989036
  -activities
    As   -14.340408889878
    C(-4)   -144.60341490554
    C(4)   -4.1159978902904
    Ca   -4.3638319848635
    Cl   -3.7837336954596
    Mg   -4.4941722345558
    Na   -2.1185999317669
    S(-2)   -143.36423146796
    S(6)   -3.8142473477192
  -gammas
  -Isotopes
SOLUTION_RAW       18 Solution after simulation 4.
  -temp              25
  -pH                5.4446290245393
  -pe                15.222840659093
  -mu                3.9302113593442
  -ah2o              0.8821815712988
  -total_h           111.03819978363
  -total_o           55.57822808009
  -cb                0.023815452982728
  -mass_water        1.0001216338187
  -total_alkalinity  0.012262172714799
  -totals
    As   2.0424211886845e-08
    C   0.021040640208512
    Ca   0.22013426245736
    Cl   3.5984656397774
    Mg   0.10065379089989
    Na   2.9983025902395
    S   0.0026677055273925
  -activities
    As   -10.634938275687
    C(-4)   -142.50423554866
    C(4)   -7.5095455371513
    Ca   -0.97028433800256
    Cl   0.30700114592878
    Mg   -1.1006245876949
    Na   0.49105932973795
    S(-2)   -141.06387237003
    S(6)   -4.1472537304574
  -gammas
  -Isotopes
SOLUTION_RAW       19 Solution after simulation 4.
  -temp              25
  -pH                5.7263736567806
  -pe                14.910824350304
  -mu                1.7542083504476
  -ah2o              0.94655560514118
  -total_h           111.05772649574
  -total_o           55.608901564266
  -cb                0.04368461121104
  -mass_water        1.0002667832588
  -total_alkalinity  0.01569026863195
  -totals
    As   6.0925332680175e-09
    C   0.033295952566586
    Ca   0.084479487639417
    Cl   1.5935071322783
    Mg   0.047663971411884
    Na   1.3912196213575
    S   0.0013122606231408
  -activities
    As   -11.752541523851
    C(-4)   -142.23847026938
    C(4)   -6.8307003760884
    Ca   -1.6491294990655
    Cl   -0.038926539988888
    Mg   -1.7794697487578
    Na   0.027738248726215
    S(-2)   -141.25142386369
    S(6)   -4.172881524847
  -gammas
  -Isotopes
SOLUTION_RAW       20 Solution after simulation 4.
  -temp              25
  -pH                6.1738556531335
  -pe                14.442597607787
  -mu                0.58397607016228
  -ah2o              0.9816613645643
  -total_h           111.0493666178
  -total_o           55.592092064953
  -cb                0.032481428853856
  -mass_water        1.0001869898286
  -total_alkalinity  0.016204006103149
  -totals
    As   1.64764823459e-09
    C   0.028276232678158
    Ca   0.021594029536328
    Cl   0.51945181295109
    Mg   0.014025806545175
    Na   0.49806987625844
    S   0.00058614943285247
  -activities
    As   -12.996322111978
    C(-4)   -142.38464124957
    C(4)   -6.2004187537142
    Ca   -2.2794111214396
    Cl   -0.48300721240495
    Mg   -2.409751371132
    Na   -0.45474269973348
    S(-2)   -141.62247258135
    S(6)   -4.1991440468335
  -gammas
  -Isotopes
SOLUTION_RAW       21 Solution after simulation 4.
  -temp              25
  -pH                6.7085976538147
  -pe                13.900039329559
  -mu                0.17531728107393
  -ah2o              0.99430934189186
  -total_h           111.03340665769
  -total_o           55.564121784505
  -cb                0.015395604943332
  -mass_water        1.0000562243124
  -total_alkalinity  0.014776487592339
  -totals
    As   1.4307980082361e-09
    C   0.019132463368644
    Ca   0.0042755519556103
    Cl   0.14633918171871
    Mg   0.0029814136396588
    Na   0.16266516048459
    S   0.00033390799497479
  -activities
    As   -13.801282889932
    C(-4)   -142.81502595528
    C(4)   -5.6071702293745
    Ca   -2.8726596457793
    Cl   -0.97601206498417
    Mg   -3.0029998954717
    Na   -0.91516404881276
    S(-2)   -142.05173812221
    S(6)   -4.1339586515014
  -gammas
  -Isotopes
SOLUTION_RAW       22 Solution after simulation 4.
  -temp              25
  -pH                7.4162390838981
  -pe                13.189856598577
  -mu                0.048239927168248
  -ah2o              0.99840597122025
  -total_h           111.02307845705
  -total_o           55.542969789137
  -cb                0.0047151309783202
  -mass_water        0.9999940068545
  -total_alkalinity  0.01139274111808
  -totals
    As   7.0412638869033e-09
    C   0.012134650370698
    Ca   0.00067139814577718
    Cl   0.033004963762537
    Mg   0.00048345617697527
    Na   0.047317711872996
    S   0.00025728880914993
  -activities
    As   -14.199769645287
    C(-4)   -143.55825979898
    C(4)   -4.9500946618712
    Ca   -3.5297352132826
    Cl   -1.5700136113664
    Mg   -3.6600754629749
    Na   -1.4103160801289
    S(-2)   -142.59757464842
    S(6)   -3.9853414326712
  -gammas
  -Isotopes
SOLUTION_RAW       23 Solution after simulation 4.
  -temp              25
  -pH                8.0006143496522
  -pe                12.604808202975
  -mu                0.016089997925312
  -ah2o              0.99947272102853
  -total_h           111.01934560237
  -total_o           55.533471806392
  -cb                0.00089676857124781
  -mass_water        0.99998358965213
  -total_alkalinity  0.0088875067378302
  -totals
    As   5.4854915130218e-08
    C   0.0089810910129605
    Ca   0.00016782503854851
    Cl   0.0058560949348703
    Mg   0.000121235958383
    Na   0.015540172935291
    S   0.00023893491514527
  -activities
    As   -14.308003430846
    C(-4)   -144.21653025227
    C(4)   -4.4436083904552
    Ca   -4.0362214846986
    Cl   -2.2885282271784
    Mg   -4.166561734391
    Na   -1.8649391970413
    S(-2)   -143.05797963661
    S(6)   -3.8649010740725
  -gammas
  -Isotopes
SOLUTION_RAW       24 Solution after simulation 4.
  -temp              25
  -pH                8.4677377512366
  -pe                12.137547476288
  -mu                0.0096080964189208
  -ah2o              0.99969138851204
  -total_h           111.01840127815
  -total_o           55.531230099138
  -cb                -6.5705287339817e-05
  -mass_water        0.9999815806585
  -total_alkalinity  0.0083560142817901
  -totals
    As   3.685726463276e-07
    C   0.0082359049212277
    Ca   5.9237441259767e-05
    Cl   0.00043563849869956
    Mg   4.1835516994791e-05
    Na   0.0089947110198717
    S   0.00023527043529229
  -activities
    As   -14.355431764233
    C(-4)   -144.70851010384
    C(4)   -4.0021548070491
    Ca   -4.4776750681047
    Cl   -3.4055902605393
    Mg   -4.608015317797
    Na   -2.0922361528332
    S(-2)   -143.4767067074
    S(6)   -3.8172231634545
  -gammas
  -Isotopes
SOLUTION_RAW       25 Solution after simulation 4.
  -temp              25
  -pH                8.4512256211142
  -pe                12.15405169875
  -mu                0.0092705031926138
  -ah2o              0.99970266163044
  -total_h           111.01834173485
  -total_o           55.531017766266
  -cb                -0.00012592296551601
  -mass_water        0.99998162056749
  -total_alkalinity  0.0082748286173506
  -totals
    As   3.4226243760354e-07
    C   0.0081652581160021
    Ca   6.1349735607549e-05
    Cl   0.00021084856944033
    Mg   4.3397621227236e-05
    Na   0.0086208387038
    S   0.00023511846687849
  -activities
    As   -14.35223213672
    C(-4)   -144.69472623368
    C(4)   -4.0214430918595
    Ca   -4.4583867832943
    Cl   -3.7200348526808
    Mg   -4.5887270329867
    Na   -2.1099628478747
    S(-2)   -143.45751750301
    S(6)   -3.8145886866404
  -gammas
  -Isotopes
SOLUTION_RAW       26 Solution after simulation 4.
  -temp              25
  -pH                8.3628514999557
  -pe                12.242420972171
  -mu                0.0090925517693231
  -ah2o              0.99970815534401
  -total_h           111.01832502857
  -total_o           55.530838038283
  -cb                -0.00014251607485262
  -mass_water        0.99998185864904
  -total_alkalinity  0.0081720131031415
  -totals
    As   2.3423043868919e-07
    C   0.0081055184766151
    Ca   7.4037609150175e-05
    Cl   0.00014908620237206
    Mg   5.2734309257859e-05
    Na   0.0083954270495933
    S   0.00023507671265489
  -activities
    As   -14.340929006148
    C(-4)   -144.60833397017
    C(4)   -4.1118314746919
    Ca   -4.3679984004619
    Cl   -3.8701870639553
    Mg   -4.4983386501543
    Na   -2.1209604828219
    S(-2)   -143.36835850358
    S(6)   -3.8138342683775
  -gammas
  -Isotopes
SOLUTION_RAW       27 Solution after simulation 4.
  -temp              25
  -pH                5.4526959922886
  -pe                15.212035802801
  -mu                3.6788889181552
  -ah2o              0.88957498611319
  -total_h           111.04161369769
  -total_o           55.584351643285
  -cb                0.027648336377493
  -mass_water        1.0001460436714
  -total_alkalinity  0.012967238663741
  -totals
    As   1.9471630259567e-08
    C   0.023379716070544
    Ca   0.20349989172565
    Cl   3.3667983340114
    Mg   0.095162556111437
    Na   2.8151112082265
    S   0.0025110876881949
  -activities
    As   -10.699014344904
    C(-4)   -142.44056468588
    C(4)   -7.440770111024
    Ca   -1.0390597641298
    Cl   0.27744499648768
    Mg   -1.1694000138221
    Na   0.44736175837036
    S(-2)   -141.06420595315
    S(6)   -4.1469251282809
  -gammas
  -Isotopes
SOLUTION_RAW       28 Solution after simulation 4.
  -temp              25
  -pH                5.743699889165
  -pe                14.891958135815
  -mu                1.6616257500363
  -ah2o              0.94928876861074
  -total_h           111.05897852579
  -total_o           55.610919008851
  -cb                0.0448113553954
  -mass_water        1.0002754294657
  -total_alkalinity  0.015983360536821
  -totals
    As   5.6196668827755e-09
    C   0.034031751526436
    Ca   0.079001786282146
    Cl   1.5079770166198
    Mg   0.045014138681555
    Na   1.3232487648449
    S   0.0012544383002954
  -activities
    As   -11.819044327465
    C(-4)   -142.22712454753
    C(4)   -6.7932654297378
    Ca   -1.686564445416
    Cl   -0.061395013241244
    Mg   -1.8169046951084
    Na   0.0014377837425889
    S(-2)   -141.26384971335
    S(6)   -4.1752921638452
  -gammas
  -Isotopes
SOLUTION_RAW       29 Solution after simulation 4.
  -temp              25
  -pH                6.1610198863459
  -pe                14.455695777271
  -mu                0.59753187526539
  -ah2o              0.9812295723693
  -total_h           111.05048298237
  -total_o           55.594233707549
  -cb                0.033659273074557
  -mass_water        1.0001947571453
  -total_alkalinity  0.016457966903737
  -totals
    As   1.6726960298443e-09
    C   0.028988485501609
    Ca   0.022086062387002
    Cl   0.53151444995959
    Mg   0.014316889815989
    Na   0.51001439587888
    S   0.00059430433713844
  -activities
    As   -12.972100441982
    C(-4)   -142.36884594421
    C(4)   -6.2087689705602
    Ca   -2.2710609045936
    Cl   -0.47410392366918
    Mg   -2.401401154286
    Na   -0.44455883623879
    S(-2)   -141.61099005517
    S(6)   -4.1991623457943
  -gammas
  -Isotopes
SOLUTION_RAW       30 Solution after simulation 4.
  -temp              25
  -pH                6.6417301842271
  -pe                13.967430035773
  -mu                0.20159022444385
  -ah2o              0.99346397811503
  -total_h           111.03562173719
  -total_o           55.568541385537
  -cb                0.017692914653017
  -mass_water        1.0000703586521
  -total_alkalinity  0.015421090205916
  -totals
    As   1.3480649556099e-09
    C   0.020596341224133
    Ca   0.0050632579614883
    Cl   0.16973111710571
    Mg   0.0035105231371757
    Na   0.18639700517138
    S   0.00034972202799854
  -activities
    As   -13.732630308585
    C(-4)   -142.74141844719
    C(4)   -5.6642199479896
    Ca   -2.8156099271643
    Cl   -0.91809154623722
    Mg   -2.9459501768566
    Na   -0.86031966150295
    S(-2)   -141.99974667528
    S(6)   -4.1461263448884
  -gammas
  -Isotopes
SOLUTION_RAW       31 Solution after simulation 4.
  -temp              25
  -pH                7.271461606847
  -pe                13.334960235172
  -mu                0.063916923769896
  -ah2o              0.99788701021155
  -total_h           111.02489295982
  -total_o           55.547384697909
  -cb                0.0065741690468103
  -mass_water        1.0000005433483
  -total_alkalinity  0.012473641343319
  -totals
    As   4.6167261927267e-09
    C   0.013600582883654
    Ca   0.00094255952285238
    Cl   0.046340988761327
    Mg   0.00067568491630013
    Na   0.062684924050493
    S   0.00026630458030771
  -activities
    As   -14.1499418152
    C(-4)   -143.38676061087
    C(4)   -5.0662170029452
    Ca   -3.4136128722086
    Cl   -1.4328517100282
    Mg   -3.543953121901
    Na   -1.2968918809994
    S(-2)   -142.48797515794
    S(6)   -4.0188127817631
  -gammas
  -Isotopes
SOLUTION_RAW       32 Solution after simulation 4.
  -temp              25
  -pH                8.3653719996452
  -pe                12.239976142599
  -mu                0.012520016731289
  -ah2o              0.99959198772036
  -total_h           111.01881554184
  -total_o           55.532382629889
  -cb                0.00035652477925796
  -mass_water        0.99998184426356