#PHAST restart file
#Prefix: ex4restart
#Date: Thu May 31 09:02:57 2007
#Current model time: 10000
#nx, ny, nz: 16, 9, 5
SOLUTION_RAW       -2 
  -temp              25
  -pH                7
  -pe                4
  -mu                1e-07
  -ah2o              1
  -total_h           111.0192242578
  -total_o           55.533977608216
  -cb                0.0007636124131854
  -mass_water        1
  -total_alkalinity  0
  -totals
    As   6.9704068168553e-07
    C   0.0091512260217714
    Ca   8.1147260997164e-05
    Cl   0.0017537724258479
    Mg   5.7895955788421e-05
    Na   0.012070128986131
    S   0.00023616148369396
  -activities
    As   -8.1567418742464
    C(-4)   -4.0385207180843
    C(4)   -4.0385207180843
    Ca   -6.0907261345425
    Cl   -4.7560267625154
    Mg   -6.2373517720259
    Na   -3.9182880888367
    S(-2)   -5.626790931376
    S(6)   -5.626790931376
  -gammas
  -Isotopes
SOLUTION_RAW       0 Solution after simulation 4.
  -temp              25
  -pH                6.9779199010764
  -pe                13.62927517107
  -mu                0.094124559913089
  -ah2o              0.99683924135075
  -total_h           111.03786323052
  -total_o           55.579355603876
  -cb                0.019721113763461
  -mass_water        1.0000434836597
  -total_alkalinity  0.020678570301763
  -totals
    As   2.0901763995286e-09
    C   0.024271868508965
    Ca   0.0013272598698098
    Cl   0.061711407754252
    Mg   0.00094232231935832
    Na   0.098125321044204
    S   0.00027669575644426
  -activities
    As   -14.021999631472
    C(-4)   -142.89505873497
    C(4)   -5.1567829827847
    Ca   -3.3230468923691
    Cl   -1.32376763483
    Mg   -3.4533871420615
    Na   -1.1157247026686
    S(-2)   -142.25514084018
    S(6)   -4.0751599333262
  -gammas
  -Isotopes
SOLUTION_RAW       1 Solution after simulation 4.
  -temp              25
  -pH                8.0276555356183
  -pe                12.578008818372
  -mu                0.02504361131994
  -ah2o              0.99916472440981
  -total_h           111.02290654287
  -total_o           55.54424389448
  -cb                0.0044888636531502
  -mass_water        0.99998418716295
  -total_alkalinity  0.012482141484652
  -totals
    As   6.6451087867195e-08
    C   0.012573348295298
    Ca   0.0001301167223333
    Cl   0.0095348437911383
    Mg   9.3114714036976e-05
    Na   0.02654229631675
    S   0.00024142190473082
  -activities
    As   -14.31911405472
    C(-4)   -144.11067123158
    C(4)   -4.2821340694906
    Ca   -4.1976958056632
    Cl   -2.0885008466887
    Mg   -4.3280360553556
    Na   -1.6437740380582
    S(-2)   -143.13160738464
    S(6)   -3.9100887086511
  -gammas
  -Isotopes
SOLUTION_RAW       2 Solution after simulation 4.
  -temp              25
  -pH                8.6222145185476
  -pe                11.983156230312
  -mu                0.012849085675163
  -ah2o              0.99958467234345
  -total_h           111.01941456092
  -total_o           55.534693723298
  -cb                0.00095478076636917
  -mass_water        0.99998126899261
  -total_alkalinity  0.009644137884088
  -totals
    As   7.2625075700411e-07
    C   0.0093899620057697
    Ca   4.1151604422195e-05
    Cl   0.0018442912189632
    Mg   2.8477768631425e-05
    Na   0.012777122836794
    S   0.0002362227313619
  -activities
    As   -14.390547366078
    C(-4)   -144.81632104812
    C(4)   -3.8004672590577
    Ca   -4.6793626160961
    Cl   -2.7850480068408
    Mg   -4.8097028657885
    Na   -1.9461820836605
    S(-2)   -143.6556911341
    S(6)   -3.8412322837951
  -gammas
  -Isotopes
SOLUTION_RAW       3 Solution after simulation 4.
  -temp              25
  -pH                8.7316385506963
  -pe                11.873668451707
  -mu                0.010329338897309
  -ah2o              0.99967206262245
  -total_h           111.01856774584
  -total_o           55.532265165159
  -cb                9.9338801440295e-05
  -mass_water        0.99998108314
  -total_alkalinity  0.0088784517481946
  -totals
    As   1.132188786502e-06
    C   0.0085800159397952
    Ca   3.4468301935058e-05
    Cl   0.0004735876050757
    Mg   2.3613155349128e-05
    Na   0.0098069396015941
    S   0.00023529608633268
  -activities
    As   -14.397552224828
    C(-4)   -144.96222028953
    C(4)   -3.7279098917853
    Ca   -4.7519199833685
    Cl   -3.3707858192183
    Mg   -4.8822602330608
    Na   -2.056807735419
    S(-2)   -143.745458283
    S(6)   -3.8219262705166
  -gammas
  -Isotopes
SOLUTION_RAW       4 Solution after simulation 4.
  -temp              25
  -pH                8.5352640352662
  -pe                12.070016961985
  -mu                0.0093850429133807
  -ah2o              0.99969972174111
  -total_h           111.01835721509
  -total_o           55.531199689511
  -cb                -0.00011081837478029
  -mass_water        0.99998143045887
  -total_alkalinity  0.0083805042138134
  -totals
    As   4.8954940423262e-07
    C   0.0082257254239598
    Ca   5.1444768497973e-05
    Cl   0.00019909635181774
    Mg   3.6110706455881e-05
    Na   0.0087643818367281
    S   0.00023511052319037
  -activities
    As   -14.364141958452
    C(-4)   -144.77702713611
    C(4)   -3.9356423540092
    Ca   -4.5441875211446
    Cl   -3.7451850922407
    Mg   -4.674527770837
    Na   -2.1031928711446
    S(-2)   -143.54200599977
    S(6)   -3.8150156733023
  -gammas
  -Isotopes
SOLUTION_RAW       5 Solution after simulation 4.
  -temp              25
  -pH                7.8830855493242
  -pe                12.722175260683
  -mu                0.0087732554413318
  -ah2o              0.99972430390041
  -total_h           111.01831960173
  -total_o           55.530159111979
  -cb                -0.00014738125314268
  -mass_water        0.9999842886649
  -total_alkalinity  0.0077250011272716
  -totals
    As   3.0378293205507e-08
    C   0.00787948009332
    Ca   0.0002179989169988
    Cl   0.00014208098160541
    Mg   0.00015866080067168
    Na   0.007436555752965
    S   0.00023507197713923
  -activities
    As   -14.289954601927
    C(-4)   -144.14380954483
    C(4)   -4.6069112047515
    Ca   -3.8729186704024
    Cl   -3.8903943890149
    Mg   -4.0032589200947
    Na   -2.1724953726319
    S(-2)   -142.89429402109
    S(6)   -3.8196009772842
  -gammas
  -Isotopes
SOLUTION_RAW       6 Solution after simulation 4.
  -temp              25
  -pH                7.8824763153984
  -pe                12.722784067697
  -mu                0.0087578513866496
  -ah2o              0.9997248552513
  -total_h           111.01831315251
  -total_o           55.530138974053
  -cb                -0.00015386859900418
  -mass_water        0.99998429118383
  -total_alkalinity  0.0077180587257455
  -totals
    As   3.0261404853956e-08
    C   0.0078727669267775
    Ca   0.00021840323777227
    Cl   0.00013625758842865
    Mg   0.00015896022021821
    Na   0.0074158871411061
    S   0.00023506804025615
  -activities
    As   -14.290337339317
    C(-4)   -144.14354876261
    C(4)   -4.6078715942853
    Ca   -3.8719582808686
    Cl   -3.9085357178981
    Mg   -4.0022985305609
    Na   -2.173670561147
    S(-2)   -142.89357226711
    S(6)   -3.8194909235194
  -gammas
  -Isotopes
SOLUTION_RAW       7 Solution after simulation 4.
  -temp              25
  -pH                7.9844193358177
  -pe                12.620843033729
  -mu                0.0087998256487379
  -ah2o              0.99972094865534
  -total_h           111.01831029855
  -total_o           55.530286640557
  -cb                -0.00015677853067208
  -mass_water        0.99998355346474
  -total_alkalinity  0.00781935227905
  -totals
    As   4.6484453893337e-08
    C   0.0079219670733985
    Ca   0.00017234292111024
    Cl   0.00013541376644241
    Mg   0.00012506696565812
    Na   0.0076733491627699
    S   0.00023506746851619
  -activities
    As   -14.300675265143
    C(-4)   -144.24089933204
    C(4)   -4.5013253121472
    Ca   -3.9785045630066
    Cl   -3.9113256296438
    Mg   -4.108844812699
    Na   -2.1590086676208
    S(-2)   -142.99315589254
    S(6)   -3.8171224120415
  -gammas
  -Isotopes
SOLUTION_RAW       8 Solution after simulation 4.
  -temp              25
  -pH                7.5128579772305
  -pe                13.092394935396
  -mu                0.0086770436291381
  -ah2o              0.99974790936508
  -total_h           111.01832180325
  -total_o           55.529367782918
  -cb                -0.00014514745864558
  -mass_water        0.99998864623028
  -total_alkalinity  0.007195299799487
  -totals
    As   6.6338148264246e-09
    C   0.0076157369058489
    Ca   0.00053559102124197
    Cl   0.00013395232634667
    Mg   0.00039239508471815
    Na   0.0057982720515132
    S   0.00023506648121527
  -activities
    As   -14.254862342373
    C(-4)   -143.80319008199
    C(4)   -5.0067793106619
    Ca   -3.473050564492
    Cl   -3.91576950198
    Mg   -3.6033908141843
    Na   -2.280136837988
    S(-2)   -142.54176383508
    S(6)   -3.837320536009
  -gammas
  -Isotopes
SOLUTION_RAW       9 Solution after simulation 4.
  -temp              25
  -pH                7.008813166055
  -pe                13.598284431894
  -mu                0.089628895479977
  -ah2o              0.99699053773899
  -total_h           111.03691279249
  -total_o           55.577329675026
  -cb                0.01875172066073
  -mass_water        1.000038386315
  -total_alkalinity  0.0202958493732
  -totals
    As   2.2427367955524e-09
    C   0.023596881872377
    Ca   0.001235816050133
    Cl   0.058174003392627
    Mg   0.00087840930874139
    Na   0.093541733553439
    S   0.00027430430094683
  -activities
    As   -14.038881873318
    C(-4)   -142.93117670422
    C(4)   -5.1316964844391
    Ca   -3.3481333907147
    Cl   -1.347391481995
    Mg   -3.4784736404071
    Na   -1.1348835013207
    S(-2)   -142.27942552058
    S(6)   -4.0690674997539
  -gammas
  -Isotopes
SOLUTION_RAW       10 Solution after simulation 4.
  -temp              25
  -pH                8.0513738081062
  -pe                12.554269634646
  -mu                0.024196099638653
  -ah2o              0.99919362357891
  -total_h           111.02264610515
  -total_o           55.5435096408
  -cb                0.0042258201960081
  -mass_water        0.9999839346029
  -total_alkalinity  0.012255466814014
  -totals
    As   7.2798604465854e-08
    C   0.012328641006285
    Ca   0.00012450486304064
    Cl   0.0090436707158403
    Mg   8.9064064843425e-05
    Na   0.02558007236333
    S   0.00024108984731537
  -activities
    As   -14.322291875597
    C(-4)   -144.14158103584
    C(4)   -4.2657369383557
    Ca   -4.2140929367981
    Cl   -2.1104949031934
    Mg   -4.3444331864905
    Na   -1.6589155901133
    S(-2)   -143.15130775
    S(6)   -3.906187852536
  -gammas
  -Isotopes
SOLUTION_RAW       11 Solution after simulation 4.
  -temp              25
  -pH                8.6088912045895
  -pe                11.996475778679
  -mu                0.012715667772895
  -ah2o              0.99958883895854
  -total_h           111.01936895856
  -total_o           55.534520078949
  -cb                0.00090907833661325
  -mass_water        0.99998129379338
  -total_alkalinity  0.0095741995311914
  -totals
    As   6.8627154063632e-07
    C   0.0093321325021993
    Ca   4.236125981366e-05
    Cl   0.0018084298378454
    Mg   2.936768622562e-05
    Na   0.012621333062521
    S   0.00023619848870427
  -activities
    As   -14.387785214584
    C(-4)   -144.80506173712
    C(4)   -3.8158783397076
    Ca   -4.6639515354462
    Cl   -2.7933424752288
    Mg   -4.7942917851386
    Na   -1.9512409436616
    S(-2)   -143.64143839292
    S(6)   -3.840324415002
  -gammas
  -Isotopes
SOLUTION_RAW       12 Solution after simulation 4.
  -temp              25
  -pH                8.6782141064535
  -pe                11.927088965595
  -mu                0.010195955200382
  -ah2o              0.99967512141075
  -total_h           111.01855501161
  -total_o           55.532099049004
  -cb                8.7244317314412e-05
  -mass_water        0.99998116756582
  -total_alkalinity  0.0087806326835454
  -totals
    As   9.0366684131144e-07
    C   0.0085249466800705
    Ca   3.8248816391651e-05
    Cl   0.00046776767681498
    Mg   2.6393304383117e-05
    Na   0.0096778484081553
    S   0.00023529215259437
  -activities
    As   -14.388146579988
    C(-4)   -144.90964541989
    C(4)   -3.7822122287108
    Ca   -4.697617646443
    Cl   -3.3758889600883
    Mg   -4.8279578961353
    Na   -2.0621328081865
    S(-2)   -143.69112839856
    S(6)   -3.8210484711213
  -gammas
  -Isotopes
SOLUTION_RAW       13 Solution after simulation 4.
  -temp              25
  -pH                8.357112958316
  -pe                12.248161744045
  -mu                0.0091800327577636
  -ah2o              0.99970516660607
  -total_h           111.01835589226
  -total_o           55.530924968755
  -cb                -0.00011138349299897
  -mass_water        0.9999818779086
  -total_alkalinity  0.0081988760885784
  -totals
    As   2.2889148957802e-07
    C   0.0081344998625708
    Ca   7.4840407292611e-05
    Cl   0.00019449953008812
    Mg   5.3321375639455e-05
    Na   0.0084961122818225
    S   0.00023510741526473
  -activities
    As   -14.340332343896
    C(-4)   -144.60122464832
    C(4)   -4.1161852476004
    Ca   -4.3636446275534
    Cl   -3.754893873385
    Mg   -4.4939848772458
    Na   -2.1159579760303
    S(-2)   -143.36343735441
    S(6)   -3.8146389567621
  -gammas
  -Isotopes
SOLUTION_RAW       14 Solution after simulation 4.
  -temp              25
  -pH                7.4871573674865
  -pe                13.118095833936
  -mu                0.008706677814229
  -ah2o              0.99974929660017
  -total_h           111.01833659482
  -total_o           55.529335677242
  -cb                -0.0001302869718155
  -mass_water        0.9999890883672
  -total_alkalinity  0.0071590496580221
  -totals
    As   6.0075424621108e-09
    C   0.0076050394339556
    Ca   0.00057098905309327
    Cl   0.00014166048570751
    Mg   0.00041843860043369
    Na   0.005661717257144
    S   0.00023507169237065
  -activities
    As   -14.251301898521
    C(-4)   -143.77981163303
    C(4)   -5.0348063622253
    Ca   -3.4450235129285
    Cl   -3.8915368203303
    Mg   -3.5753637626209
    Na   -2.2905350546888
    S(-2)   -142.51832509257
    S(6)   -3.8395878975899
  -gammas
  -Isotopes
SOLUTION_RAW       15 Solution after simulation 4.
  -temp              25
  -pH                7.4313761599473
  -pe                13.173875778646
  -mu                0.0087091258902352
  -ah2o              0.99975529216012
  -total_h           111.01833415733
  -total_o           55.529156392656
  -cb                -0.0001327546733147
  -mass_water        0.99999008446525
  -total_alkalinity  0.0070419962293482
  -totals
    As   4.8203201153865e-09
    C   0.0075452802381905
    Ca   0.00065878016823434
    Cl   0.00013518109070281
    Mg   0.00048305459703375
    Na   0.0052308925607641
    S   0.00023506731212193
  -activities
    As   -14.246053220135
    C(-4)   -143.73142671324
    C(4)   -5.097977785675
    Ca   -3.3818520894788
    Cl   -3.9118754458275
    Mg   -3.5121923391712
    Na   -2.3248754248547
    S(-2)   -142.46757124768
    S(6)   -3.8446047766663
  -gammas
  -Isotopes
SOLUTION_RAW       16 Solution after simulation 4.
  -temp              25
  -pH                7.4146490745791
  -pe                13.190602554314
  -mu                0.0087140003260389
  -ah2o              0.99975716647076
  -total_h           111.01833390246
  -total_o           55.52910107353
  -cb                -0.00013301353475358
  -mass_water        0.99999040207508
  -total_alkalinity  0.0070053763267104
  -totals
    As   4.514314477388e-09
    C   0.0075268409419352
    Ca   0.00068793511725243
    Cl   0.00013434194806873
    Mg   0.00050451245896599
    Na   0.0050919475902047
    S   0.00023506674415077
  -activities
    As   -14.2445401469
    C(-4)   -143.71706176846
    C(4)   -5.1170669750635
    Ca   -3.3627629000903
    Cl   -3.914590662766
    Mg   -3.4931031497827
    Na   -2.3365660811512
    S(-2)   -142.45253092538
    S(6)   -3.8462906730815
  -gammas
  -Isotopes
SOLUTION_RAW       17 Solution after simulation 4.
  -temp              25
  -pH                7.3252955371363
  -pe                13.279955404614
  -mu                0.0087850657055476
  -ah2o              0.99976761665358
  -total_h           111.01834580969
  -total_o           55.528818465271
  -cb                -0.00012107863533387
  -mass_water        0.99999226732205
  -total_alkalinity  0.0068050493572855
  -totals
    As   3.2051958106281e-09
    C   0.0074326444225289
    Ca   0.00086927785057779
    Cl   0.00013380243409116
    Mg   0.00063796346194529
    Na   0.0042734264963954
    S   0.00023506638010146
  -activities
    As   -14.235199023122
    C(-4)   -143.64110295386
    C(4)   -5.2198046277497
    Ca   -3.2600252474041
    Cl   -3.9164957733214
    Mg   -3.3903654970965
    Na   -2.4127597910255
    S(-2)   -142.37385243622
    S(6)   -3.8569499339223
  -gammas
  -Isotopes
SOLUTION_RAW       18 Solution after simulation 4.
  -temp              25
  -pH                7.0789361743531
  -pe                13.527966704111
  -mu                0.080647447885393
  -ah2o              0.99729231046772
  -total_h           111.03503366024
  -total_o           55.573306864657
  -cb                0.016834583336641
  -mass_water        1.0000284191657
  -total_alkalinity  0.019528081215081
  -totals
    As   2.6623041842759e-09
    C   0.022256567299823
    Ca   0.0010499660482913
    Cl   0.05110710051314
    Mg   0.00074802309693479
    Na   0.084412842883385
    S   0.00026952672333525
  -activities
    As   -14.073922114493
    C(-4)   -143.01205246186
    C(4)   -5.0734896801401
    Ca   -3.4063401950137
    Cl   -1.3993708181401
    Mg   -3.5366804447061
    Na   -1.1760143847084
    S(-2)   -142.33515414359
    S(6)   -4.0557051321497
  -gammas
  -Isotopes
SOLUTION_RAW       19 Solution after simulation 4.
  -temp              25
  -pH                8.0866390920692
  -pe                12.518975086501
  -mu                0.023031359398918
  -ah2o              0.99923336561948
  -total_h           111.02226125001
  -total_o           55.542421517497
  -cb                0.0038375380343254
  -mass_water        0.99998358649185
  -total_alkalinity  0.011918030811168
  -totals
    As   8.3458904004453e-08
    C   0.011965979609694
    Ca   0.00011677767483465
    Cl   0.0084072888880685
    Mg   8.3482387647253e-05
    Na   0.024243740291041
    S   0.00024065961176942
  -activities
    As   -14.326909886921
    C(-4)   -144.18795278435
    C(4)   -4.2417604130273
    Ca   -4.2380694621265
    Cl   -2.1408065593212
    Mg   -4.3684097118189
    Na   -1.6809483473357
    S(-2)   -143.18081548847
    S(6)   -3.9005953270421
  -gammas
  -Isotopes
SOLUTION_RAW       20 Solution after simulation 4.
  -temp              25
  -pH                8.5861852936236
  -pe                12.019179866398
  -mu                0.012670727263951
  -ah2o              0.99958983779801
  -total_h           111.01934331728
  -total_o           55.534390992229
  -cb                0.00088376300595899
  -mass_water        0.99998133710303
  -total_alkalinity  0.0095136837139881
  -totals
    As   6.2372007438855e-07
    C   0.0092891747275178
    Ca   4.4429724580446e-05
    Cl   0.0018442909146337
    Mg   3.0886364967017e-05
    Na   0.012564174631825
    S   0.00023622272813215
  -activities
    As   -14.383896893397
    C(-4)   -144.78372904699
    C(4)   -3.8399716770435
    Ca   -4.6398581981103
    Cl   -2.7847357787691
    Mg   -4.7701984478027
    Na   -1.9530671651441
    S(-2)   -143.61844455823
    S(6)   -3.8400506470272
  -gammas
  -Isotopes
SOLUTION_RAW       21 Solution after simulation 4.
  -temp              25
  -pH                8.6338903665147
  -pe                11.971411289154
  -mu                0.01015768582744
  -ah2o              0.99967540233805
  -total_h           111.01856227362
  -total_o           55.532027270507
  -cb                9.5111550954827e-05
  -mass_water        0.99998124313909
  -total_alkalinity  0.0087254862086077
  -totals
    As   7.494151736181e-07
    C   0.0085012210015585
    Ca   4.173816120457e-05
    Cl   0.00049714086702095
    Mg   2.8958232089084e-05
    Na   0.0096477192700972
    S   0.0002353120074637
  -activities
    As   -14.38102965329
    C(-4)   -144.86528020854
    C(4)   -3.8265058171454
    Ca   -4.6533240580084
    Cl   -3.3493627340499
    Mg   -4.7836643077008
    Na   -2.0632862448927
    S(-2)   -143.64666654363
    S(6)   -3.8209218315715
  -gammas
  -Isotopes
SOLUTION_RAW       22 Solution after simulation 4.
  -temp              25
  -pH                8.2841465549999
  -pe                12.321126543744
  -mu                0.0091342806854036
  -ah2o              0.99970662151803
  -total_h           111.01836149362
  -total_o           55.530843413535
  -cb                -0.00010555142931249
  -mass_water        0.99998211396809
  -total_alkalinity  0.0081389021756163
  -totals
    As   1.6760428016633e-07
    C   0.0081073955820135
    Ca   8.7642241216056e-05
    Cl   0.00020336179385438
    Mg   6.2738356826889e-05
    Na   0.0084063457577889
    S   0.00023511340471822
  -activities
    As   -14.331585907556
    C(-4)   -144.52932107597
    C(4)   -4.1902254240938
    Ca   -4.2896044510601
    Cl   -3.7354450301518
    Mg   -4.4199447007524
    Na   -2.1203779547564
    S(-2)   -143.29082214399
    S(6)   -3.8150004636648
  -gammas
  -Isotopes
SOLUTION_RAW       23 Solution after simulation 4.
  -temp              25
  -pH                7.4978216322067
  -pe                13.107431882319
  -mu                0.0087100461649915
  -ah2o              0.99974813610238
  -total_h           111.01833747622
  -total_o           55.529369517622
  -cb                -0.00012939143851475
  -mass_water        0.99998890870792
  -total_alkalinity  0.0071807139421182
  -totals
    As   6.2676972308727e-09
    C   0.0076163184866422
    Ca   0.0005557263757078
    Cl   0.00014492335610253
    Mg   0.00040720427720521
    Na   0.0057405386179337
    S   0.00023507389817825
  -activities
    As   -14.252327396174
    C(-4)   -143.78914835225
    C(4)   -5.0228051605414
    Ca   -3.4570247146124
    Cl   -3.8816545330803
    Mg   -3.5873649643048
    Na   -2.2845445877592
    S(-2)   -142.52815142336
    S(6)   -3.838739260446
  -gammas
  -Isotopes
SOLUTION_RAW       24 Solution after simulation 4.
  -temp              25
  -pH                7.4294753894424
  -pe                13.175776443079
  -mu                0.0087072477953222
  -ah2o              0.99975558956447
  -total_h           111.01833282958
  -total_o           55.529146494907
  -cb                -0.00013408888162547
  -mass_water        0.99999011872981
  -total_alkalinity  0.0070367309632117
  -totals
    As   4.7817870882866e-09
    C   0.0075419807128719
    Ca   0.00066209079294277
    Cl   0.00013439937065025
    Mg   0.00048549215395044
    Na   0.0052120139074598
    S   0.0002350667836113
  -activities
    As   -14.246107328998
    C(-4)   -143.72985607813
    C(4)   -5.1002091344904
    Ca   -3.3796207406634
    Cl   -3.914390019559
    Mg   -3.5099609903558
    Na   -2.3264402496869
    S(-2)   -142.46584286659
    S(6)   -3.8447774759728
  -gammas
  -Isotopes
SOLUTION_RAW       25 Solution after simulation 4.
  -temp              25
  -pH                7.3801559393936
  -pe                13.225095301128
  -mu                0.0087345627008316
  -ah2o              0.99976100825493
  -total_h           111.01833737486
  -total_o           55.528993814655
  -cb                -0.00012953405562997
  -mass_water        0.99999108958818
  -total_alkalinity  0.0069303953933839
  -totals
    As   3.949734915646e-09
    C   0.0074910900739759
    Ca   0.00075245146540784
    Cl   0.00013389614852136
    Mg   0.00055199245895413
    Na   0.0047960064733033
    S   0.00023506644300851
  -activities
    As   -14.241117660344
    C(-4)   -143.68749745156
    C(4)   -5.1564870579784
    Ca   -3.3233428171755
    Cl   -3.9160799292834
    Mg   -3.4536830668678
    Na   -2.3625897154455
    S(-2)   -142.42182670226
    S(6)   -3.8500760520784
  -gammas
  -Isotopes
SOLUTION_RAW       26 Solution after simulation 4.
  -temp              25
  -pH                7.3122698946989
  -pe                13.292981016035
  -mu                0.0087998686890217
  -ah2o              0.99976931920276
  -total_h           111.01834777289
  -total_o           55.528774325088
  -cb                -0.00011911097474677
  -mass_water        0.99999256180237
  -total_alkalinity  0.0067736568831254
  -totals
    As   3.0512863068592e-09
    C   0.0074179319593655
    Ca   0.00089993245893091
    Cl   0.00013374363639728
    Mg   0.00066052086343288
    Na   0.0041375186322463
    S   0.00023506634045584
  -activities
    As   -14.233828659176
    C(-4)   -143.63023604048
    C(4)   -5.2349877962954
    Ca   -3.2448420788585
    Cl   -3.916719327196
    Mg   -3.3751823285508
    Na   -2.4268172969278
    S(-2)   -142.36262568279
    S(6)   -3.8587470754012
  -gammas
  -Isotopes
SOLUTION_RAW       27 Solution after simulation 4.
  -temp              25
  -pH                7.1761571329368
  -pe                13.43052133168
  -mu                0.070320169009098
  -ah2o              0.99763892978933
  -total_h           111.03288503968
  -total_o           55.568636183123
  -cb                0.014642293411828
  -mass_water        1.0000174708852
  -total_alkalinity  0.018603057774729
  -totals
    As   3.4557246563717e-09
    C   0.020700358469732
    Ca   0.00083777276329286
    Cl   0.043017071009286
    Mg   0.0005984042621086
    Na   0.073918186512682
    S   0.00026405745595888
  -activities
    As   -14.116182571877
    C(-4)   -143.12305342147
    C(4)   -4.9913912815915
    Ca   -3.4884385935623
    Cl   -1.4688266359209
    Mg   -3.6187788432547
    Na   -1.2292265824481
    S(-2)   -142.41354953392
    S(6)   -4.0380711995302
  -gammas
  -Isotopes
SOLUTION_RAW       28 Solution after simulation 4.
  -temp              25
  -pH                8.1076036197345
  -pe                12.497996207949
  -mu                0.022493209104098
  -ah2o              0.99925176087187
  -total_h           111.02203806169
  -total_o           55.541791433417
  -cb                0.0036129784043126
  -mass_water        0.99998339102738
  -total_alkalinity  0.011722375057693
  -totals
    As   9.0649316706536e-08
    C   0.011755945489712
    Ca   0.00011259581954441
    Cl   0.0081751634050985
    Mg   8.0456696045838e-05
    Na   0.023605507822992
    S   0.00024050266887618
  -activities
    As   -14.329685785244
    C(-4)   -144.21572219445
    C(4)   -4.2276915878264
    Ca   -4.2521382873274
    Cl   -2.1523143129627
    Mg   -4.3824785370197
    Na   -1.6919291891556
    S(-2)   -143.19891827255
    S(6)   -3.897816404838
  -gammas
  -Isotopes
SOLUTION_RAW       29 Solution after simulation 4.
  -temp              25
  -pH                8.589563681604
  -pe                12.015805834923
  -mu                0.012858564019161
  -ah2o              0.99958356960105
  -total_h           111.0193765012
  -total_o           55.534504989373
  -cb                0.00091754853787155
  -mass_water        0.99998132745569
  -total_alkalinity  0.0095558964620917
  -totals
    As   6.3352542242019e-07
    C   0.0093271399320083
    Ca   4.4113846463486e-05
    Cl   0.0019721943918888
    Mg   3.0651474209244e-05
    Na   0.012769360653886
    S   0.00023630918897837
  -activities
    As   -14.385071411854
    C(-4)   -144.78580973587
    C(4)   -3.8352689169226
    Ca   -4.6445609582313
    Cl   -2.755944333594
    Mg   -4.7749012079236
    Na   -1.9463546819472
    S(-2)   -143.62309384918
    S(6)   -3.8412976115502
  -gammas
  -Isotopes
SOLUTION_RAW       30 Solution after simulation 4.
  -temp              25
  -pH                8.6962200888233
  -pe                11.909088876557
  -mu                0.010426703909608
  -ah2o              0.99966782708572
  -total_h           111.01860786008
  -total_o           55.532309060874
  -cb                0.0001404441254523
  -mass_water        0.99998113684803
  -total_alkalinity  0.0088672136997275
  -totals
    As   9.7666055442805e-07
    C   0.0085948401887227
    Ca   3.6861552574668e-05
    Cl   0.00057762046448051
    Mg   2.5370172548763e-05
    Na   0.0099325243180292
    S   0.00023536640903066
  -activities
    As   -14.391980864707
    C(-4)   -144.92518937377
    C(4)   -3.7617077913896
    Ca   -4.7181220837643
    Cl   -3.284737185788
    Mg   -4.8484623334566
    Na   -2.0513556739247
    S(-2)   -143.71093315068
    S(6)   -3.8228145844267
  -gammas
  -Isotopes
SOLUTION_RAW       31 Solution after simulation 4.
  -temp              25
  -pH                8.5190103708286
  -pe                12.086271772513
  -mu                0.0094348497290051
  -ah2o              0.99969782702872
  -total_h           111.01837833806
  -total_o           55.531238405869
  -cb                -8.9401875279375e-05
  -mass_water        0.99998146549094
  -total_alkalinity  0.0083850303311881
  -totals
    As   4.5759005286564e-07
    C   0.0082386691603424
    Ca   5.3147303278175e-05
    Cl   0.00023692499417361
    Mg   3.7361297950319e-05
    Na   0.0088222660154698
    S   0.00023513608889583
  -activities
    As   -14.3616446143
    C(-4)   -144.75995034196
    C(4)   -3.9510654796604
    Ca   -4.5287643954934
    Cl   -3.6697426239359
    Mg   -4.6591046451857
    Na   -2.1004028402578
    S(-2)   -143.52628036981
    S(6)   -3.8155368342909
  -gammas
  -Isotopes
SOLUTION_RAW       32 Solution after simulation 4.
  -temp              25
  -pH                7.8383561279286
  -pe                12.766903590904