#PHAST restart file
#Prefix: print_check_transient
#Date: Mon Nov 13 19:57:14 2006
#Current model time: 31000
#nx, ny, nz: 16, 9, 3
SOLUTION_RAW       -2 
  -temp              25
  -pH                7
  -pe                4
  -mu                1e-07
  -ah2o              1
  -total_h           111.05057780902
  -total_o           55.594726871986
  -cb                0.033804974726924
  -mass_water        1
  -total_alkalinity  0
  -totals
    As   3.100818596285e-09
    C   0.029173748115189
    Ca   0.021817206681045
    Cl   0.51892173535688
    Mg   0.013989735565931
    Na   0.49895957942288
    S   0.00058579107880444
  -activities
    As   -10.508523640063
    C(-4)   -3.5350077710437
    C(4)   -3.5350077710437
    Ca   -3.6612008541448
    Cl   -2.2848981382319
    Mg   -3.8541904944676
    Na   -2.3019346350271
    S(-2)   -5.2322572466106
    S(6)   -5.2322572466106
  -gammas
  -Isotopes
SOLUTION_RAW       0 Solution after simulation 4.
  -temp              25
  -pH                5.4364970252904
  -pe                15.234422850157
  -mu                4.2884791004099
  -ah2o              0.87161395578146
  -total_h           111.03411758509
  -total_o           55.570898130391
  -cb                0.019210829234101
  -mass_water        1.0000930152056
  -total_alkalinity  0.011355840630038
  -totals
    As   2.1396312188789e-08
    C   0.018185267984892
    Ca   0.24385161665493
    Cl   3.9285912831292
    Mg   0.10802790476243
    Na   3.2611807030903
    S   0.0028908857677039
  -activities
    As   -10.556128297915
    C(-4)   -142.5946098016
    C(4)   -7.6042836213392
    Ca   -0.87554625381467
    Cl   0.34644359036524
    Mg   -1.005886503507
    Na   0.5511373279234
    S(-2)   -141.0639316223
    S(6)   -4.1487786515405
  -gammas
  -Isotopes
SOLUTION_RAW       1 Solution after simulation 4.
  -temp              25
  -pH                5.6628782781609
  -pe                14.978697299245
  -mu                2.0206496464602
  -ah2o              0.93860982336686
  -total_h           111.05773028035
  -total_o           55.609949366232
  -cb                0.044280084389794
  -mass_water        1.0002670958074
  -total_alkalinity  0.0156567897074
  -totals
    As   7.7985764187695e-09
    C   0.033502888031367
    Ca   0.099877133457497
    Cl   1.8382644460488
    Mg   0.054793167024851
    Na   1.59181618281
    S   0.0014777279150389
  -activities
    As   -11.541334050982
    C(-4)   -142.23366792428
    C(4)   -6.9288512553345
    Ca   -1.5509786198194
    Cl   0.019682815345961
    Mg   -1.6813188695117
    Na   0.10000558685841
    S(-2)   -141.20166375325
    S(6)   -4.1662403330507
  -gammas
  -Isotopes
SOLUTION_RAW       2 Solution after simulation 4.
  -temp              25
  -pH                6.117062558972
  -pe                14.50068646515
  -mu                0.65194030747983
  -ah2o              0.97954560295648
  -total_h           111.05336877805
  -total_o           55.599556587361
  -cb                0.036725948473708
  -mass_water        1.0002164611599
  -total_alkalinity  0.016933416116483
  -totals
    As   1.7853596780943e-09
    C   0.030744735588971
    Ca   0.024518752895358
    Cl   0.58046674989414
    Mg   0.015770372837598
    Na   0.5548026615319
    S   0.00062739836406202
  -activities
    As   -12.882855752135
    C(-4)   -142.32798452801
    C(4)   -6.2497932306157
    Ca   -2.2300366445381
    Cl   -0.43985166025585
    Mg   -2.3603768942305
    Na   -0.40814478778085
    S(-2)   -141.57277757621
    S(6)   -4.1996241828855
  -gammas
  -Isotopes
SOLUTION_RAW       3 Solution after simulation 4.
  -temp              25
  -pH                6.6679990683609
  -pe                13.940929670408
  -mu                0.18894588732034
  -ah2o              0.99384869415056
  -total_h           111.03600888074
  -total_o           55.569825426918
  -cb                0.018040370917332
  -mass_water        1.0000692496766
  -total_alkalinity  0.015933397954014
  -totals
    As   1.3684503251746e-09
    C   0.021029987858217
    Ca   0.0045007226926805
    Cl   0.15728992983955
    Mg   0.0031287411792002
    Na   0.17668739475253
    S   0.00034131120847486
  -activities
    As   -13.762491251381
    C(-4)   -142.74770311143
    C(4)   -5.6193142550057
    Ca   -2.8605156201481
    Cl   -0.94813525210143
    Mg   -2.9908558698405
    Na   -0.88168038905383
    S(-2)   -142.01914144789
    S(6)   -4.1404315149294
  -gammas
  -Isotopes
SOLUTION_RAW       4 Solution after simulation 4.
  -temp              25
  -pH                7.4097885134636
  -pe                13.196413309357
  -mu                0.052707632084675
  -ah2o              0.99825013426089
  -total_h           111.02422966011
  -total_o           55.546237535624
  -cb                0.0058766711073582
  -mass_water        0.99999529219513
  -total_alkalinity  0.01240912454815
  -totals
    As   7.0812606801039e-09
    C   0.013222720203566
    Ca   0.00064747091321203
    Cl   0.035952681919392
    Mg   0.00046533556107163
    Na   0.052531434914158
    S   0.00025928160328228
  -activities
    As   -14.194923946492
    C(-4)   -143.51851123879
    C(4)   -4.922601538159
    Ca   -3.5572283369949
    Cl   -1.5359954062556
    Mg   -3.6875685866872
    Na   -1.3677416098095
    S(-2)   -142.60110339825
    S(6)   -3.9947429541325
  -gammas
  -Isotopes
SOLUTION_RAW       5 Solution after simulation 4.
  -temp              25
  -pH                8.1876188331443
  -pe                12.417801533732
  -mu                0.015785559482954
  -ah2o              0.99948096610842
  -total_h           111.01941024748
  -total_o           55.533953121079
  -cb                0.00095969425269169
  -mass_water        0.99998255250595
  -total_alkalinity  0.0091454408033456
  -totals
    As   1.195764017096e-07
    C   0.0091417150172158
    Ca   0.00010855125692885
    Cl   0.005321485584756
    Mg   7.7820426292946e-05
    Na   0.015531143839628
    S   0.00023857349443809
  -activities
    As   -14.333010023532
    C(-4)   -144.39399378036
    C(4)   -4.2470695462712
    Ca   -4.2327603288826
    Cl   -2.3296392035963
    Mg   -4.363100578575
    Na   -1.8649691880523
    S(-2)   -143.24091726387
    S(6)   -3.8608373179701
  -gammas
  -Isotopes
SOLUTION_RAW       6 Solution after simulation 4.
  -temp              25
  -pH                8.5225486813305
  -pe                12.082775315104
  -mu                0.011277552347592
  -ah2o              0.99963557706323
  -total_h           111.01869236889
  -total_o           55.532239980965
  -cb                0.00022880779089592
  -mass_water        0.99998145298413
  -total_alkalinity  0.0087340697083972
  -totals
    As   4.7203849197263e-07
    C   0.0085718967569591
    Ca   5.2739711324454e-05
    Cl   0.0015729613201476
    Mg   3.7021491279643e-05
    Na   0.010828867089195
    S   0.00023603931823533
  -activities
    As   -14.369066035611
    C(-4)   -144.75061518659
    C(4)   -3.9343998965512
    Ca   -4.5454299786026
    Cl   -2.8513084404501
    Mg   -4.675770228295
    Na   -2.0149140470061
    S(-2)   -143.54415192808
    S(6)   -3.8296432737387
  -gammas
  -Isotopes
SOLUTION_RAW       7 Solution after simulation 4.
  -temp              25
  -pH                8.614445422904
  -pe                11.990867871243
  -mu                0.010749060310384
  -ah2o              0.99965500033762
  -total_h           111.01859187527
  -total_o           55.53209233228
  -cb                0.00012603531969908
  -mass_water        0.99998127148723
  -total_alkalinity  0.0087377494256364
  -totals
    As   6.9310951511257e-07
    C   0.0085226137714943
    Ca   4.3712864435763e-05
    Cl   0.0010678159887278
    Mg   3.0400613885549e-05
    Na   0.010255462519982
    S   0.00023569781652321
  -activities
    As   -14.380768049101
    C(-4)   -144.84566164737
    C(4)   -3.8457139700518
    Ca   -4.6341159051021
    Cl   -3.0185165688136
    Mg   -4.7644561547944
    Na   -2.037797745052
    S(-2)   -143.63169099509
    S(6)   -3.8253385744413
  -gammas
  -Isotopes
SOLUTION_RAW       8 Solution after simulation 4.
  -temp              25
  -pH                8.4831491554061
  -pe                12.122130620554
  -mu                0.0093635736137842
  -ah2o              0.99969981662939
  -total_h           111.01835372216
  -total_o           55.531104584635
  -cb                -0.00011396211886356
  -mass_water        0.99998154451463
  -total_alkalinity  0.0083205530075852
  -totals
    As   3.9244771125218e-07
    C   0.0081941145034757
    Ca   5.7370663638409e-05
    Cl   0.0002482677223974
    Mg   4.0469048056502e-05
    Na   0.0087298591633498
    S   0.00023514376395466
  -activities
    As   -14.356734604727
    C(-4)   -144.72574089452
    C(4)   -3.9885955311704
    Ca   -4.4912343439835
    Cl   -3.6492827795281
    Mg   -4.6215745936758
    Na   -2.1047539751241
    S(-2)   -143.49000160888
    S(6)   -3.8151357854613
  -gammas
  -Isotopes
SOLUTION_RAW       9 Solution after simulation 4.
  -temp              25
  -pH                5.4379982533781
  -pe                15.231800444238
  -mu                4.1652567413496
  -ah2o              0.87525038395745
  -total_h           111.03550070711
  -total_o           55.573405779518
  -cb                0.02077377086692
  -mass_water        1.000102562411
  -total_alkalinity  0.011679456395218
  -totals
    As   2.115308703516e-08
    C   0.019162908038181
    Ca   0.23568842246065
    Cl   3.8150357970772
    Mg   0.10554508536912
    Na   3.1706502638217
    S   0.0028141169944513
  -activities
    As   -10.57998402799
    C(-4)   -142.56184863574
    C(4)   -7.5720650391753
    Ca   -0.90776483597855
    Cl   0.33320296607726
    Mg   -1.0381050856709
    Na   0.53076200630492
    S(-2)   -141.06302625489
    S(6)   -4.1481089488368
  -gammas
  -Isotopes
SOLUTION_RAW       10 Solution after simulation 4.
  -temp              25
  -pH                5.687776989285
  -pe                14.95209329722
  -mu                1.9159077404505
  -ah2o              0.94173541683979
  -total_h           111.05763213706
  -total_o           55.60933544554
  -cb                0.043940300719964
  -mass_water        1.0002663909452
  -total_alkalinity  0.015637890324878
  -totals
    As   7.0847211515759e-09
    C   0.033352646667007
    Ca   0.093804585367983
    Cl   1.7420949410741
    Mg   0.052027931937322
    Na   1.5128335303354
    S   0.0014127128711689
  -activities
    As   -11.623672903907
    C(-4)   -142.23658197745
    C(4)   -6.8912788230415
    Ca   -1.5885510521123
    Cl   -0.0024370235849076
    Mg   -1.7188913018047
    Na   0.072373514080086
    S(-2)   -141.22120799937
    S(6)   -4.1687529793448
  -gammas
  -Isotopes
SOLUTION_RAW       11 Solution after simulation 4.
  -temp              25
  -pH                6.1454037912622
  -pe                14.471665694303
  -mu                0.61616881129638
  -ah2o              0.98065693529634
  -total_h           111.05141512968
  -total_o           55.595929957902
  -cb                0.034647832229046
  -mass_water        1.0002019053421
  -total_alkalinity  0.016596209566369
  -totals
    As   1.7096464818836e-09
    C   0.029546819747046
    Ca   0.022963666609113
    Cl   0.54825987670606
    Mg   0.014845747192497
    Na   0.5250963426575
    S   0.00060562502480179
  -activities
    As   -12.940978037892
    C(-4)   -142.35501011125
    C(4)   -6.2240953250557
    Ca   -2.2557345500981
    Cl   -0.46205249424529
    Mg   -2.3860747997905
    Na   -0.43199053121265
    S(-2)   -141.59754590243
    S(6)   -4.1995178092608
  -gammas
  -Isotopes
SOLUTION_RAW       12 Solution after simulation 4.
  -temp              25
  -pH                6.7010102557745
  -pe                13.907672613201
  -mu                0.17704386211395
  -ah2o              0.99424172249787
  -total_h           111.03436503244
  -total_o           55.566338107939
  -cb                0.016360994213951
  -mass_water        1.0000602399783
  -total_alkalinity  0.01528981457565
  -totals
    As   1.4146306859075e-09
    C   0.019871561677931
    Ca   0.0042275807946723
    Cl   0.14719782815088
    Mg   0.0029466717364991
    Na   0.16516911025254
    S   0.00033448847988241
  -activities
    As   -13.795026463137
    C(-4)   -142.7932926828
    C(4)   -5.6003332750545
    Ca   -2.8794966000993
    Cl   -0.97392386674278
    Mg   -3.0098368497916
    Na   -0.90889630563267
    S(-2)   -142.04518348542
    S(6)   -4.1347424783417
  -gammas
  -Isotopes
SOLUTION_RAW       13 Solution after simulation 4.
  -temp              25
  -pH                7.4454793927325
  -pe                13.160601109543
  -mu                0.047214519317734
  -ah2o              0.99843648135769
  -total_h           111.02326408896
  -total_o           55.5436245355
  -cb                0.0048972393421432
  -mass_water        0.99999343471634
  -total_alkalinity  0.011647695539189
  -totals
    As   7.7947176647254e-09
    C   0.012353568631856
    Ca   0.00061108069241186
    Cl   0.031727710682256
    Mg   0.00044000045596228
    Na   0.046683341715264
    S   0.0002564253268532
  -activities
    As   -14.2071679701
    C(-4)   -143.57702032873
    C(4)   -4.9104562017829
    Ca   -3.569373673371
    Cl   -1.5864055520887
    Mg   -3.6997139230633
    Na   -1.415590335229
    S(-2)   -142.62370910789
    S(6)   -3.9823039508367
  -gammas
  -Isotopes
SOLUTION_RAW       14 Solution after simulation 4.
  -temp              25
  -pH                8.0574569383183
  -pe                12.547941059909
  -mu                0.014885596495397
  -ah2o              0.99951274114858
  -total_h           111.01923350387
  -total_o           55.533213602645
  -cb                0.00078132750558934
  -mass_water        0.99998322209761
  -total_alkalinity  0.0088311192780821
  -totals
    As   6.8668648376333e-08
    C   0.0088955072608141
    Ca   0.00014643328876535
    Cl   0.0047866689188654
    Mg   0.00010562888813195
    Na   0.014371483884546
    S   0.00023821193357752
  -activities
    As   -14.314251828577
    C(-4)   -144.27484322082
    C(4)   -4.3883803143724
    Ca   -4.0914495607815
    Cl   -2.3742340180246
    Mg   -4.2217898104738
    Na   -1.8972078849602
    S(-2)   -143.10709854005
    S(6)   -3.8573042240472
  -gammas
  -Isotopes
SOLUTION_RAW       15 Solution after simulation 4.
  -temp              25
  -pH                8.3959313702466
  -pe                12.209365868369
  -mu                0.010167046145403
  -ah2o              0.99967189939812
  -total_h           111.01851094807
  -total_o           55.531465457201
  -cb                4.5762919862176e-05
  -mass_water        0.99998176708874
  -total_alkalinity  0.0084016711656618
  -totals
    As   2.7316250866328e-07
    C   0.0083142790456279
    Ca   6.8942477428097e-05
    Cl   0.00090066788502573
    Mg   4.895452610089e-05
    Na   0.0095837507594325
    S   0.00023558481671605
  -activities
    As   -14.347882095437
    C(-4)   -144.63313946422
    C(4)   -4.070326353948
    Ca   -4.4095035212058
    Cl   -3.091296599731
    Mg   -4.5398437708981
    Na   -2.0656550767611
    S(-2)   -143.40988628635
    S(6)   -3.8221470591885
  -gammas
  -Isotopes
SOLUTION_RAW       16 Solution after simulation 4.
  -temp              25
  -pH                8.4385364642644
  -pe                12.166747995182
  -mu                0.0095854599094713
  -ah2o              0.99969189511653
  -total_h           111.01840392095
  -total_o           55.531193423979
  -cb                -6.2919844125176e-05
  -mass_water        0.99998165301961
  -total_alkalinity  0.0083289326024412
  -totals
    As   3.2545706188212e-07
    C   0.0082237333248512
    Ca   6.2981208319365e-05
    Cl   0.00044198521367103
    Mg   4.4588682643513e-05
    Na   0.0089637330990504
    S   0.00023527472596362
  -activities
    As   -14.351513074138
    C(-4)   -144.67955521881
    C(4)   -4.0316079993334
    Ca   -4.4482218758204
    Cl   -3.3992616056741
    Mg   -4.5785621255128
    Na   -2.0936366727132
    S(-2)   -143.44752588758
    S(6)   -3.8172489226494
  -gammas
  -Isotopes
SOLUTION_RAW       17 Solution after simulation 4.
  -temp              25
  -pH                8.3583055901334
  -pe                12.246967888421
  -mu                0.0091370809027928
  -ah2o              0.99970663007246
  -total_h           111.01833526469
  -total_o           55.530863482609
  -cb                -0.00013215562258915
  -mass_water        0.99998187257894
  -total_alkalinity  0.0081786236640001
  -totals
    As   2.2991005222704e-07
    C   0.0081139918741826
    Ca   7.4751943370125e-05
    Cl   0.00018196447507687
    Mg   5.3258169729406e-05
    Na   0.0084428400801219
    S   0.00023509893989047
  -activities
    As   -14.340408890411
    C(-4)   -144.60341463244
    C(4)   -4.1159978859427
    Ca   -4.3638319892111
    Cl   -3.7837336954654
    Mg   -4.4941722389034
    Na   -2.1185999315406
    S(-2)   -143.36423108355
    S(6)   -3.8142473477003
  -gammas
  -Isotopes
SOLUTION_RAW       18 Solution after simulation 4.
  -temp              25
  -pH                5.4446290245393
  -pe                15.222840659094
  -mu                3.9302113593443
  -ah2o              0.8821815712988
  -total_h           111.03819978363
  -total_o           55.57822808009
  -cb                0.023815452982729
  -mass_water        1.0001216338187
  -total_alkalinity  0.0122621727148
  -totals
    As   2.0424211886846e-08
    C   0.021040640208516
    Ca   0.22013426245736
    Cl   3.5984656397774
    Mg   0.10065379089989
    Na   2.9983025902395
    S   0.0026677055273924
  -activities
    As   -10.634938275687
    C(-4)   -142.50423554866
    C(4)   -7.5095455371513
    Ca   -0.97028433800256
    Cl   0.30700114592878
    Mg   -1.1006245876949
    Na   0.49105932973795
    S(-2)   -141.06387237004
    S(6)   -4.1472537304574
  -gammas
  -Isotopes
SOLUTION_RAW       19 Solution after simulation 4.
  -temp              25
  -pH                5.7263736567805
  -pe                14.910824350304
  -mu                1.7542083504476
  -ah2o              0.94655560514117
  -total_h           111.05772649574
  -total_o           55.608901564266
  -cb                0.043684611211065
  -mass_water        1.0002667832588
  -total_alkalinity  0.015690268631954
  -totals
    As   6.0925332680186e-09
    C   0.033295952566598
    Ca   0.084479487639415
    Cl   1.5935071322783
    Mg   0.047663971411882
    Na   1.3912196213576
    S   0.0013122606231405
  -activities
    As   -11.752541523851
    C(-4)   -142.23847026938
    C(4)   -6.8307003760884
    Ca   -1.6491294990655
    Cl   -0.038926539988888
    Mg   -1.7794697487578
    Na   0.027738248726227
    S(-2)   -141.25142386369
    S(6)   -4.1728815248471
  -gammas
  -Isotopes
SOLUTION_RAW       20 Solution after simulation 4.
  -temp              25
  -pH                6.1738556531332
  -pe                14.442597607788
  -mu                0.58397607016232
  -ah2o              0.9816613645643
  -total_h           111.0493666178
  -total_o           55.592092064953
  -cb                0.032481428853921
  -mass_water        1.0001869898286
  -total_alkalinity  0.016204006103165
  -totals
    As   1.64764823459e-09
    C   0.028276232678195
    Ca   0.021594029536325
    Cl   0.51945181295109
    Mg   0.014025806545173
    Na   0.49806987625853
    S   0.00058614943285206
  -activities
    As   -12.996322111977
    C(-4)   -142.38464124957
    C(4)   -6.2004187537141
    Ca   -2.2794111214397
    Cl   -0.48300721240496
    Mg   -2.4097513711321
    Na   -0.4547426997334
    S(-2)   -141.62247258135
    S(6)   -4.1991440468338
  -gammas
  -Isotopes
SOLUTION_RAW       21 Solution after simulation 4.
  -temp              25
  -pH                6.7085976538132
  -pe                13.90003932956
  -mu                0.17531728107403
  -ah2o              0.99430934189186
  -total_h           111.03340665769
  -total_o           55.564121784505
  -cb                0.015395604943438
  -mass_water        1.0000562243124
  -total_alkalinity  0.014776487592396
  -totals
    As   1.4307980082316e-09
    C   0.019132463368734
    Ca   0.0042755519556107
    Cl   0.14633918171871
    Mg   0.002981413639659
    Na   0.16266516048475
    S   0.00033390799497447
  -activities
    As   -13.801282889931
    C(-4)   -142.81502595527
    C(4)   -5.6071702293744
    Ca   -2.8726596457795
    Cl   -0.9760120649842
    Mg   -3.0029998954718
    Na   -0.91516404881236
    S(-2)   -142.05173812221
    S(6)   -4.133958651502
  -gammas
  -Isotopes
SOLUTION_RAW       22 Solution after simulation 4.
  -temp              25
  -pH                7.4162390838873
  -pe                13.18985659859
  -mu                0.048239927168546
  -ah2o              0.99840597122024
  -total_h           111.02307845705
  -total_o           55.542969789137
  -cb                0.0047151309784969
  -mass_water        0.9999940068545
  -total_alkalinity  0.011392741118288
  -totals
    As   7.041263886636e-09
    C   0.01213465037094
    Ca   0.00067139814578363
    Cl   0.033004963762538
    Mg   0.00048345617697986
    Na   0.047317711873359
    S   0.00025728880914976
  -activities
    As   -14.199769645284
    C(-4)   -143.55825979897
    C(4)   -4.9500946618743
    Ca   -3.5297352132795
    Cl   -1.5700136113666
    Mg   -3.6600754629719
    Na   -1.4103160801258
    S(-2)   -142.59757464842
    S(6)   -3.9853414326726
  -gammas
  -Isotopes
SOLUTION_RAW       23 Solution after simulation 4.
  -temp              25
  -pH                8.0006143516456
  -pe                12.604808200984
  -mu                0.016089997932989
  -ah2o              0.99947272102824
  -total_h           111.01934560237
  -total_o           55.533471806409
  -cb                0.00089676857521913
  -mass_water        0.99998358965212
  -total_alkalinity  0.0088875067446618
  -totals
    As   5.4854915590367e-08
    C   0.0089810910187369
    Ca   0.00016782503771504
    Cl   0.0058560949348714
    Mg   0.00012123595777167
    Na   0.015540172948983
    S   0.00023893491514447
  -activities
    As   -14.308003431116
    C(-4)   -144.21652935548
    C(4)   -4.4436083881681
    Ca   -4.0362214869857
    Cl   -2.28852822719
    Mg   -4.1665617366781
    Na   -1.8649391966719
    S(-2)   -143.05797859797
    S(6)   -3.864901074086
  -gammas
  -Isotopes
SOLUTION_RAW       24 Solution after simulation 4.
  -temp              25
  -pH                8.4677377479454
  -pe                12.137547479575
  -mu                0.0096080964154728
  -ah2o              0.99969138851212
  -total_h           111.01840127815
  -total_o           55.531230099134
  -cb                -6.5705286971738e-05
  -mass_water        0.99998158065851
  -total_alkalinity  0.0083560142785836
  -totals
    As   3.6857264116124e-07
    C   0.008235904919735
    Ca   5.9237441667051e-05
    Cl   0.00043563849869949
    Mg   4.1835517294327e-05
    Na   0.0089947110156147
    S   0.00023527043529249
  -activities
    As   -14.355431763779
    C(-4)   -144.70851006551
    C(4)   -4.0021548103701
    Ca   -4.4776750647837
    Cl   -3.4055902605322
    Mg   -4.6080153144761
    Na   -2.0922361530258
    S(-2)   -143.47670665531
    S(6)   -3.8172231634492
  -gammas
  -Isotopes
SOLUTION_RAW       25 Solution after simulation 4.
  -temp              25
  -pH                8.4512256176094
  -pe                12.154051702255
  -mu                0.0092705031866924
  -ah2o              0.99970266163062
  -total_h           111.01834173485
  -total_o           55.53101776625
  -cb                -0.00012592296769203
  -mass_water        0.9999816205675
  -total_alkalinity  0.0082748286100716
  -totals
    As   3.4226243247707e-07
    C   0.0081652581105537
    Ca   6.1349736080784e-05
    Cl   0.00021084856943995
    Mg   4.3397621575503e-05
    Na   0.0086208386926964
    S   0.00023511846687846
  -activities
    As   -14.352232136245
    C(-4)   -144.69472571302
    C(4)   -4.0214430955999
    Ca   -4.4583867795539
    Cl   -3.7200348526689
    Mg   -4.5887270292463
    Na   -2.1099628484148
    S(-2)   -143.4575166423
    S(6)   -3.8145886866113
  -gammas
  -Isotopes
SOLUTION_RAW       26 Solution after simulation 4.
  -temp              25
  -pH                8.362851499185
  -pe                12.242420972942
  -mu                0.0090925517690664
  -ah2o              0.99970815534401
  -total_h           111.01832502857
  -total_o           55.530838038283
  -cb                -0.00014251607452149
  -mass_water        0.99998185864904
  -total_alkalinity  0.0081720131027308
  -totals
    As   2.3423043791704e-07
    C   0.0081055184765567
    Ca   7.4037609271088e-05
    Cl   0.00014908620237204
    Mg   5.2734309346793e-05
    Na   0.0083954270490931
    S   0.00023507671265479
  -activities
    As   -14.340929006057
    C(-4)   -144.60833396941
    C(4)   -4.1118314754605
    Ca   -4.3679983996933
    Cl   -3.8701870639548
    Mg   -4.4983386493856
    Na   -2.1209604828462
    S(-2)   -143.36835850283
    S(6)   -3.813834268383
  -gammas
  -Isotopes
SOLUTION_RAW       27 Solution after simulation 4.
  -temp              25
  -pH                5.4526959922885
  -pe                15.212035802801
  -mu                3.6788889181552
  -ah2o              0.88957498611319
  -total_h           111.04161369769
  -total_o           55.584351643285
  -cb                0.027648336377509
  -mass_water        1.0001460436714
  -total_alkalinity  0.012967238663743
  -totals
    As   1.947163025957e-08
    C   0.02337971607055
    Ca   0.20349989172565
    Cl   3.3667983340114
    Mg   0.095162556111435
    Na   2.8151112082265
    S   0.0025110876881947
  -activities
    As   -10.699014344903
    C(-4)   -142.44056468588
    C(4)   -7.440770111024
    Ca   -1.0390597641298
    Cl   0.27744499648768
    Mg   -1.1694000138221
    Na   0.44736175837037
    S(-2)   -141.06420595316
    S(6)   -4.146925128281
  -gammas
  -Isotopes
SOLUTION_RAW       28 Solution after simulation 4.
  -temp              25
  -pH                5.7436998891647
  -pe                14.891958135819
  -mu                1.6616257500363
  -ah2o              0.94928876861074
  -total_h           111.05897852579
  -total_o           55.610919008852
  -cb                0.044811355395465
  -mass_water        1.0002754294657
  -total_alkalinity  0.015983360536831
  -totals
    As   5.619666882778e-09
    C   0.034031751526468
    Ca   0.07900178628214
    Cl   1.5079770166198
    Mg   0.045014138681552
    Na   1.323248764845
    S   0.0012544383002949
  -activities
    As   -11.819044327465
    C(-4)   -142.22712454756
    C(4)   -6.7932654297377
    Ca   -1.6865644454161
    Cl   -0.061395013241245
    Mg   -1.8169046951084
    Na   0.0014377837426205
    S(-2)   -141.26384971338
    S(6)   -4.1752921638454
  -gammas
  -Isotopes
SOLUTION_RAW       29 Solution after simulation 4.
  -temp              25
  -pH                6.161019886345
  -pe                14.455695777273
  -mu                0.59753187526549
  -ah2o              0.98122957236929
  -total_h           111.05048298237
  -total_o           55.594233707549
  -cb                0.033659273074726
  -mass_water        1.0001947571453
  -total_alkalinity  0.016457966903776
  -totals
    As   1.6726960298439e-09
    C   0.028988485501702
    Ca   0.022086062386995
    Cl   0.53151444995959
    Mg   0.014316889815984
    Na   0.51001439587911
    S   0.00059430433713768
  -activities
    As   -12.972100441981
    C(-4)   -142.36884594421
    C(4)   -6.20876897056
    Ca   -2.2710609045938
    Cl   -0.47410392366919
    Mg   -2.4014011542862
    Na   -0.4445588362386
    S(-2)   -141.61099005518
    S(6)   -4.1991623457949
  -gammas
  -Isotopes
SOLUTION_RAW       30 Solution after simulation 4.
  -temp              25
  -pH                6.6417301842244
  -pe                13.967430035775
  -mu                0.20159022444408
  -ah2o              0.99346397811502
  -total_h           111.03562173719
  -total_o           55.568541385537
  -cb                0.01769291465329
  -mass_water        1.0000703586521
  -total_alkalinity  0.015421090206029
  -totals
    As   1.3480649556034e-09
    C   0.020596341224315
    Ca   0.0050632579614871
    Cl   0.16973111710571
    Mg   0.0035105231371747
    Na   0.18639700517177
    S   0.000349722027998
  -activities
    As   -13.732630308583
    C(-4)   -142.74141844718
    C(4)   -5.6642199479892
    Ca   -2.8156099271647
    Cl   -0.91809154623727
    Mg   -2.945950176857
    Na   -0.86031966150209
    S(-2)   -141.99974667527
    S(6)   -4.1461263448894
  -gammas
  -Isotopes
SOLUTION_RAW       31 Solution after simulation 4.
  -temp              25
  -pH                7.2714616068383
  -pe                13.334960235178
  -mu                0.063916923770282
  -ah2o              0.99788701021154
  -total_h           111.02489295982
  -total_o           55.54738469791
  -cb                0.0065741690471359
  -mass_water        1.0000005433483
  -total_alkalinity  0.012473641343545
  -totals
    As   4.6167261925977e-09
    C   0.013600582883924
    Ca   0.00094255952285711
    Cl   0.046340988761327
    Mg   0.00067568491630341
    Na   0.062684924051029
    S   0.00026630458030768
  -activities
    As   -14.149941815197
    C(-4)   -143.38676061084
    C(4)   -5.0662170029462
    Ca   -3.4136128722076
    Cl   -1.4328517100285
    Mg   -3.5439531218999
    Na   -1.296891880996
    S(-2)   -142.48797515791
    S(6)   -4.0188127817643
  -gammas
  -Isotopes
SOLUTION_RAW       32 Solution after simulation 4.
  -temp              25
  -pH                8.3653719957038
  -pe                12.239976146542
  -mu                0.012520016726899
  -ah2o              0.99959198772049
  -total_h           111.01881554184
  -total_o           55.532382629881
  -cb                0.00035652477895583
  -mass_water        0.99998184426357