#PHAST restart file
#Prefix: print_check_transient
#Date: Thu May 18 09:50:47 2006
#Current model time: 31000
#nx, ny, nz: 16, 9, 3
SOLUTION_RAW       -2 
  -temp              25
  -pH                7
  -pe                4
  -mu                1e-07
  -ah2o              1
  -total_h           111.05057780902
  -total_o           55.594726871986
  -cb                0.033804974727026
  -mass_water        1
  -total_alkalinity  0
  -totals
    As   3.1008186000913e-09
    C   0.029173748115275
    Ca   0.021817206681031
    Cl   0.51892173535688
    Mg   0.013989735565922
    Na   0.49895957942308
    S   0.0005857910788034
  -activities
    As   -10.50852363953
    C(-4)   -3.5350077710424
    C(4)   -3.5350077710424
    Ca   -3.6612008541451
    Cl   -2.2848981382319
    Mg   -3.8541904944679
    Na   -2.301934635027
    S(-2)   -5.2322572466113
    S(6)   -5.2322572466113
  -gammas
  -Isotopes
SOLUTION_RAW       0 Solution after simulation 4.
  -temp              25
  -pH                5.4364970252904
  -pe                15.23442285016
  -mu                4.2884791004099
  -ah2o              0.87161395578146
  -total_h           111.03411758509
  -total_o           55.570898130391
  -cb                0.019210829234105
  -mass_water        1.0000930152056
  -total_alkalinity  0.011355840630039
  -totals
    As   2.139631218879e-08
    C   0.018185267984894
    Ca   0.24385161665493
    Cl   3.9285912831292
    Mg   0.10802790476243
    Na   3.2611807030903
    S   0.0028908857677039
  -activities
    As   -10.556128297915
    C(-4)   -142.59460980162
    C(4)   -7.6042836213392
    Ca   -0.87554625381467
    Cl   0.34644359036524
    Mg   -1.005886503507
    Na   0.5511373279234
    S(-2)   -141.06393162232
    S(6)   -4.1487786515405
  -gammas
  -Isotopes
SOLUTION_RAW       1 Solution after simulation 4.
  -temp              25
  -pH                5.6628782781609
  -pe                14.978697299246
  -mu                2.0206496464602
  -ah2o              0.93860982336686
  -total_h           111.05773028035
  -total_o           55.609949366232
  -cb                0.044280084389798
  -mass_water        1.0002670958074
  -total_alkalinity  0.0156567897074
  -totals
    As   7.7985764187696e-09
    C   0.033502888031367
    Ca   0.099877133457499
    Cl   1.8382644460488
    Mg   0.054793167024852
    Na   1.59181618281
    S   0.0014777279150388
  -activities
    As   -11.541334050982
    C(-4)   -142.23366792429
    C(4)   -6.9288512553345
    Ca   -1.5509786198193
    Cl   0.019682815345961
    Mg   -1.6813188695117
    Na   0.10000558685841
    S(-2)   -141.20166375326
    S(6)   -4.1662403330507
  -gammas
  -Isotopes
SOLUTION_RAW       2 Solution after simulation 4.
  -temp              25
  -pH                6.1170625589722
  -pe                14.500686465151
  -mu                0.65194030747982
  -ah2o              0.97954560295648
  -total_h           111.05336877805
  -total_o           55.599556587361
  -cb                0.036725948473689
  -mass_water        1.0002164611599
  -total_alkalinity  0.01693341611647
  -totals
    As   1.7853596780943e-09
    C   0.030744735588942
    Ca   0.024518752895364
    Cl   0.58046674989414
    Mg   0.015770372837601
    Na   0.55480266153185
    S   0.00062739836406185
  -activities
    As   -12.882855752135
    C(-4)   -142.32798452802
    C(4)   -6.2497932306158
    Ca   -2.230036644538
    Cl   -0.43985166025585
    Mg   -2.3603768942304
    Na   -0.40814478778089
    S(-2)   -141.57277757622
    S(6)   -4.1996241828856
  -gammas
  -Isotopes
SOLUTION_RAW       3 Solution after simulation 4.
  -temp              25
  -pH                6.6679990683624
  -pe                13.940929670406
  -mu                0.18894588732024
  -ah2o              0.99384869415056
  -total_h           111.03600888074
  -total_o           55.569825426917
  -cb                0.018040370917253
  -mass_water        1.0000692496766
  -total_alkalinity  0.015933397953945
  -totals
    As   1.3684503251789e-09
    C   0.021029987858109
    Ca   0.004500722692682
    Cl   0.15728992983955
    Mg   0.0031287411792013
    Na   0.17668739475238
    S   0.00034131120847465
  -activities
    As   -13.762491251382
    C(-4)   -142.74770311144
    C(4)   -5.619314255006
    Ca   -2.8605156201478
    Cl   -0.9481352521014
    Mg   -2.9908558698402
    Na   -0.88168038905419
    S(-2)   -142.01914144789
    S(6)   -4.1404315149295
  -gammas
  -Isotopes
SOLUTION_RAW       4 Solution after simulation 4.
  -temp              25
  -pH                7.4097885134715
  -pe                13.196413309347
  -mu                0.052707632084425
  -ah2o              0.9982501342609
  -total_h           111.02422966011
  -total_o           55.546237535623
  -cb                0.0058766711072143
  -mass_water        0.99999529219513
  -total_alkalinity  0.012409124547971
  -totals
    As   7.081260680299e-09
    C   0.013222720203359
    Ca   0.00064747091320803
    Cl   0.035952681919392
    Mg   0.00046533556106881
    Na   0.052531434913848
    S   0.00025928160328213
  -activities
    As   -14.194923946494
    C(-4)   -143.51851123879
    C(4)   -4.9226015381572
    Ca   -3.5572283369967
    Cl   -1.5359954062554
    Mg   -3.687568586689
    Na   -1.3677416098118
    S(-2)   -142.60110339824
    S(6)   -3.994742954132
  -gammas
  -Isotopes
SOLUTION_RAW       5 Solution after simulation 4.
  -temp              25
  -pH                8.1876188331388
  -pe                12.417801533736
  -mu                0.015785559482953
  -ah2o              0.99948096610842
  -total_h           111.01941024748
  -total_o           55.533953121079
  -cb                0.0009596942526757
  -mass_water        0.99998255250595
  -total_alkalinity  0.0091454408033514
  -totals
    As   1.1957640170684e-07
    C   0.0091417150172244
    Ca   0.00010855125693005
    Cl   0.0053214855847562
    Mg   7.7820426293828e-05
    Na   0.015531143839613
    S   0.00023857349443789
  -activities
    As   -14.333010023531
    C(-4)   -144.39399378034
    C(4)   -4.2470695462763
    Ca   -4.2327603288775
    Cl   -2.3296392035963
    Mg   -4.3631005785699
    Na   -1.8649691880527
    S(-2)   -143.24091726386
    S(6)   -3.8608373179705
  -gammas
  -Isotopes
SOLUTION_RAW       6 Solution after simulation 4.
  -temp              25
  -pH                8.5225486819121
  -pe                12.082775314522
  -mu                0.011277552351097
  -ah2o              0.99963557706312
  -total_h           111.01869236889
  -total_o           55.532239980971
  -cb                0.0002288077924072
  -mass_water        0.99998145298413
  -total_alkalinity  0.0087340697109471
  -totals
    As   4.7203849314636e-07
    C   0.0085718967591167
    Ca   5.2739711254261e-05
    Cl   0.0015729613201481
    Mg   3.7021491227987e-05
    Na   0.010828867093509
    S   0.00023603931823882
  -activities
    As   -14.369066035709
    C(-4)   -144.75061595419
    C(4)   -3.9343998958775
    Ca   -4.5454299792764
    Cl   -2.8513084404566
    Mg   -4.6757702289687
    Na   -2.014914046841
    S(-2)   -143.54415307017
    S(6)   -3.8296432737571
  -gammas
  -Isotopes
SOLUTION_RAW       7 Solution after simulation 4.
  -temp              25
  -pH                8.614445424091
  -pe                11.990867870054
  -mu                0.010749060313289
  -ah2o              0.99965500033755
  -total_h           111.01859187527
  -total_o           55.532092332285
  -cb                0.00012603532017402
  -mass_water        0.99998127148723
  -total_alkalinity  0.0087377494279298
  -totals
    As   6.9310951859219e-07
    C   0.0085226137729622
    Ca   4.3712864329735e-05
    Cl   0.001067815988728
    Mg   3.0400613807592e-05
    Na   0.010255462523122
    S   0.00023569781652292
  -activities
    As   -14.3807680493
    C(-4)   -144.84566160297
    C(4)   -3.8457139688238
    Ca   -4.63411590633
    Cl   -3.0185165688192
    Mg   -4.7644561560223
    Na   -2.0377977449277
    S(-2)   -143.63169092949
    S(6)   -3.8253385744594
  -gammas
  -Isotopes
SOLUTION_RAW       8 Solution after simulation 4.
  -temp              25
  -pH                8.4831491542801
  -pe                12.12213062168
  -mu                0.0093635736168585
  -ah2o              0.99969981662927
  -total_h           111.01835372217
  -total_o           55.531104584642
  -cb                -0.00011396211601311
  -mass_water        0.99998154451463
  -total_alkalinity  0.0083205530094097
  -totals
    As   3.9244770940846e-07
    C   0.0081941145058321
    Ca   5.7370663760455e-05
    Cl   0.00024826772239743
    Mg   4.0469048146118e-05
    Na   0.0087298591675991
    S   0.00023514376395442
  -activities
    As   -14.356734604562
    C(-4)   -144.72574088963
    C(4)   -3.9885955321637
    Ca   -4.4912343429902
    Cl   -3.6492827795345
    Mg   -4.6215745926825
    Na   -2.1047539749174
    S(-2)   -143.49000160267
    S(6)   -3.8151357854989
  -gammas
  -Isotopes
SOLUTION_RAW       9 Solution after simulation 4.
  -temp              25
  -pH                5.4379982533781
  -pe                15.231800444236
  -mu                4.1652567413496
  -ah2o              0.87525038395745
  -total_h           111.03550070711
  -total_o           55.573405779518
  -cb                0.020773770866929
  -mass_water        1.000102562411
  -total_alkalinity  0.011679456395219
  -totals
    As   2.1153087035163e-08
    C   0.019162908038183
    Ca   0.23568842246065
    Cl   3.8150357970772
    Mg   0.10554508536912
    Na   3.1706502638217
    S   0.0028141169944513
  -activities
    As   -10.57998402799
    C(-4)   -142.56184863572
    C(4)   -7.5720650391753
    Ca   -0.90776483597856
    Cl   0.33320296607726
    Mg   -1.0381050856709
    Na   0.53076200630492
    S(-2)   -141.06302625487
    S(6)   -4.1481089488368
  -gammas
  -Isotopes
SOLUTION_RAW       10 Solution after simulation 4.
  -temp              25
  -pH                5.687776989285
  -pe                14.952093297225
  -mu                1.9159077404506
  -ah2o              0.94173541683979
  -total_h           111.05763213706
  -total_o           55.60933544554
  -cb                0.043940300719969
  -mass_water        1.0002663909452
  -total_alkalinity  0.015637890324877
  -totals
    As   7.084721151576e-09
    C   0.033352646667006
    Ca   0.093804585367986
    Cl   1.7420949410741
    Mg   0.052027931937323
    Na   1.5128335303354
    S   0.0014127128711688
  -activities
    As   -11.623672903907
    C(-4)   -142.23658197748
    C(4)   -6.8912788230415
    Ca   -1.5885510521123
    Cl   -0.0024370235849077
    Mg   -1.7188913018047
    Na   0.072373514080085
    S(-2)   -141.2212079994
    S(6)   -4.1687529793448
  -gammas
  -Isotopes
SOLUTION_RAW       11 Solution after simulation 4.
  -temp              25
  -pH                6.1454037912625
  -pe                14.471665694305
  -mu                0.61616881129637
  -ah2o              0.98065693529634
  -total_h           111.05141512968
  -total_o           55.595929957902
  -cb                0.034647832229017
  -mass_water        1.0002019053421
  -total_alkalinity  0.016596209566351
  -totals
    As   1.7096464818836e-09
    C   0.029546819747004
    Ca   0.02296366660912
    Cl   0.54825987670606
    Mg   0.014845747192502
    Na   0.52509634265743
    S   0.00060562502480155
  -activities
    As   -12.940978037893
    C(-4)   -142.35501011126
    C(4)   -6.2240953250559
    Ca   -2.255734550098
    Cl   -0.46205249424529
    Mg   -2.3860747997903
    Na   -0.43199053121271
    S(-2)   -141.59754590245
    S(6)   -4.199517809261
  -gammas
  -Isotopes
SOLUTION_RAW       12 Solution after simulation 4.
  -temp              25
  -pH                6.7010102557766
  -pe                13.9076726132
  -mu                0.17704386211381
  -ah2o              0.99424172249787
  -total_h           111.03436503244
  -total_o           55.566338107938
  -cb                0.016360994213838
  -mass_water        1.0000602399783
  -total_alkalinity  0.015289814575555
  -totals
    As   1.4146306859134e-09
    C   0.019871561677786
    Ca   0.0042275807946758
    Cl   0.14719782815088
    Mg   0.0029466717365016
    Na   0.16516911025232
    S   0.00033448847988214
  -activities
    As   -13.795026463138
    C(-4)   -142.79329268281
    C(4)   -5.6003332750551
    Ca   -2.8794966000987
    Cl   -0.97392386674274
    Mg   -3.009836849791
    Na   -0.90889630563321
    S(-2)   -142.04518348543
    S(6)   -4.1347424783419
  -gammas
  -Isotopes
SOLUTION_RAW       13 Solution after simulation 4.
  -temp              25
  -pH                7.4454793927436
  -pe                13.16060110953
  -mu                0.047214519317379
  -ah2o              0.9984364813577
  -total_h           111.02326408896
  -total_o           55.543624535499
  -cb                0.0048972393419299
  -mass_water        0.99999343471634
  -total_alkalinity  0.011647695538939
  -totals
    As   7.7947176650311e-09
    C   0.012353568631572
    Ca   0.00061108069240708
    Cl   0.031727710682256
    Mg   0.00044000045595891
    Na   0.046683341714817
    S   0.00025642532685304
  -activities
    As   -14.207167970103
    C(-4)   -143.57702032873
    C(4)   -4.9104562017808
    Ca   -3.569373673373
    Cl   -1.5864055520884
    Mg   -3.6997139230654
    Na   -1.4155903352329
    S(-2)   -142.62370910788
    S(6)   -3.9823039508357
  -gammas
  -Isotopes
SOLUTION_RAW       14 Solution after simulation 4.
  -temp              25
  -pH                8.0574569375809
  -pe                12.547941060643
  -mu                0.014885596494434
  -ah2o              0.99951274114862
  -total_h           111.01923350387
  -total_o           55.533213602643
  -cb                0.00078132750531603
  -mass_water        0.99998322209761
  -total_alkalinity  0.0088311192769834
  -totals
    As   6.8668648163593e-08
    C   0.0088955072600977
    Ca   0.0001464332890152
    Cl   0.0047866689188653
    Mg   0.00010562888831517
    Na   0.014371483882307
    S   0.00023821193357748
  -activities
    As   -14.31425182848
    C(-4)   -144.27484324099
    C(4)   -4.3883803151503
    Ca   -4.0914495600036
    Cl   -2.3742340180231
    Mg   -4.2217898096959
    Na   -1.8972078850256
    S(-2)   -143.10709856791
    S(6)   -3.8573042240529
  -gammas
  -Isotopes
SOLUTION_RAW       15 Solution after simulation 4.
  -temp              25
  -pH                8.3959313745678
  -pe                12.209365864049
  -mu                0.010167046164053
  -ah2o              0.99967189939751
  -total_h           111.01851094808
  -total_o           55.531465457238
  -cb                4.5762929220259e-05
  -mass_water        0.99998176708873
  -total_alkalinity  0.0084016711804269
  -totals
    As   2.7316251373752e-07
    C   0.0083142790581094
    Ca   6.8942476736904e-05
    Cl   0.00090066788502661
    Mg   4.8954525592091e-05
    Na   0.0095837507859614
    S   0.00023558481671595
  -activities
    As   -14.347882096046
    C(-4)   -144.63314044279
    C(4)   -4.070326349052
    Ca   -4.4095035261018
    Cl   -3.0912965997681
    Mg   -4.5398437757941
    Na   -2.0656550756038
    S(-2)   -143.40988774189
    S(6)   -3.8221470593136
  -gammas
  -Isotopes
SOLUTION_RAW       16 Solution after simulation 4.
  -temp              25
  -pH                8.4385364642835
  -pe                12.166747995166
  -mu                0.0095854599105791
  -ah2o              0.99969189511649
  -total_h           111.01840392095
  -total_o           55.531193423981
  -cb                -6.291984349088e-05
  -mass_water        0.99998165301961
  -total_alkalinity  0.0083289326032349
  -totals
    As   3.2545706191336e-07
    C   0.0082237333256221
    Ca   6.2981208313141e-05
    Cl   0.00044198521367115
    Mg   4.4588682638891e-05
    Na   0.0089637331005
    S   0.00023527472596347
  -activities
    As   -14.351513074143
    C(-4)   -144.67955521595
    C(4)   -4.0316079992763
    Ca   -4.4482218758775
    Cl   -3.3992616056763
    Mg   -4.5785621255699
    Na   -2.0936366726454
    S(-2)   -143.447525884
    S(6)   -3.8172489226595
  -gammas
  -Isotopes
SOLUTION_RAW       17 Solution after simulation 4.
  -temp              25
  -pH                8.3583055887882
  -pe                12.246967889769
  -mu                0.0091370809027089
  -ah2o              0.99970663007245
  -total_h           111.01833526469
  -total_o           55.530863482609
  -cb                -0.00013215562183036
  -mass_water        0.99998187257894
  -total_alkalinity  0.0081786236635215
  -totals
    As   2.299100509093e-07
    C   0.0081139918743149
    Ca   7.4751943582052e-05
    Cl   0.00018196447507688
    Mg   5.3258169885259e-05
    Na   0.0084428400796648
    S   0.00023509893989029
  -activities
    As   -14.340408890246
    C(-4)   -144.60341550247
    C(4)   -4.1159978872727
    Ca   -4.3638319878811
    Cl   -3.7837336954652
    Mg   -4.4941722375734
    Na   -2.1185999315621
    S(-2)   -143.36423227475
    S(6)   -3.8142473477134
  -gammas
  -Isotopes
SOLUTION_RAW       18 Solution after simulation 4.
  -temp              25
  -pH                5.4446290245392
  -pe                15.222840659091
  -mu                3.9302113593443
  -ah2o              0.8821815712988
  -total_h           111.03819978363
  -total_o           55.57822808009
  -cb                0.023815452982739
  -mass_water        1.0001216338187
  -total_alkalinity  0.012262172714801
  -totals
    As   2.0424211886848e-08
    C   0.021040640208519
    Ca   0.22013426245736
    Cl   3.5984656397774
    Mg   0.10065379089989
    Na   2.9983025902395
    S   0.0026677055273924
  -activities
    As   -10.634938275687
    C(-4)   -142.50423554864
    C(4)   -7.5095455371513
    Ca   -0.97028433800256
    Cl   0.30700114592878
    Mg   -1.1006245876949
    Na   0.49105932973796
    S(-2)   -141.06387237001
    S(6)   -4.1472537304574
  -gammas
  -Isotopes
SOLUTION_RAW       19 Solution after simulation 4.
  -temp              25
  -pH                5.7263736567805
  -pe                14.910824350306
  -mu                1.7542083504477
  -ah2o              0.94655560514117
  -total_h           111.05772649574
  -total_o           55.608901564266
  -cb                0.04368461121107
  -mass_water        1.0002667832588
  -total_alkalinity  0.015690268631953
  -totals
    As   6.0925332680186e-09
    C   0.033295952566596
    Ca   0.084479487639419
    Cl   1.5935071322783
    Mg   0.047663971411884
    Na   1.3912196213576
    S   0.0013122606231403
  -activities
    As   -11.752541523851
    C(-4)   -142.23847026939
    C(4)   -6.8307003760884
    Ca   -1.6491294990654
    Cl   -0.038926539988888
    Mg   -1.7794697487578
    Na   0.027738248726225
    S(-2)   -141.2514238637
    S(6)   -4.1728815248472
  -gammas
  -Isotopes
SOLUTION_RAW       20 Solution after simulation 4.
  -temp              25
  -pH                6.1738556531336
  -pe                14.442597607789
  -mu                0.5839760701623
  -ah2o              0.9816613645643
  -total_h           111.0493666178
  -total_o           55.592092064953
  -cb                0.032481428853871
  -mass_water        1.0001869898286
  -total_alkalinity  0.016204006103136
  -totals
    As   1.64764823459e-09
    C   0.028276232678133
    Ca   0.021594029536338
    Cl   0.51945181295109
    Mg   0.014025806545181
    Na   0.49806987625841
    S   0.00058614943285156
  -activities
    As   -12.996322111978
    C(-4)   -142.38464124959
    C(4)   -6.2004187537144
    Ca   -2.2794111214394
    Cl   -0.48300721240496
    Mg   -2.4097513711318
    Na   -0.4547426997335
    S(-2)   -141.62247258136
    S(6)   -4.1991440468342
  -gammas
  -Isotopes
SOLUTION_RAW       21 Solution after simulation 4.
  -temp              25
  -pH                6.708597653816
  -pe                13.900039329558
  -mu                0.17531728107382
  -ah2o              0.99430934189187
  -total_h           111.03340665769
  -total_o           55.564121784505
  -cb                0.015395604943253
  -mass_water        1.0000562243124
  -total_alkalinity  0.014776487592247
  -totals
    As   1.4307980082399e-09
    C   0.019132463368512
    Ca   0.0042755519556216
    Cl   0.14633918171871
    Mg   0.0029814136396668
    Na   0.16266516048438
    S   0.00033390799497387
  -activities
    As   -13.801282889933
    C(-4)   -142.81502595529
    C(4)   -5.6071702293759
    Ca   -2.872659645778
    Cl   -0.97601206498415
    Mg   -3.0029998954703
    Na   -0.9151640488133
    S(-2)   -142.05173812222
    S(6)   -4.1339586515026
  -gammas
  -Isotopes
SOLUTION_RAW       22 Solution after simulation 4.
  -temp              25
  -pH                7.4162390839004
  -pe                13.189856598575
  -mu                0.048239927167994
  -ah2o              0.99840597122026
  -total_h           111.02307845705
  -total_o           55.542969789136
  -cb                0.0047151309781478
  -mass_water        0.9999940068545
  -total_alkalinity  0.011392741117898
  -totals
    As   7.0412638869505e-09
    C   0.012134650370501
    Ca   0.00067139814578248
    Cl   0.033004963762537
    Mg   0.00048345617697917
    Na   0.047317711872623
    S   0.0002572888091494
  -activities
    As   -14.199769645287
    C(-4)   -143.55825979899
    C(4)   -4.9500946618757
    Ca   -3.5297352132782
    Cl   -1.5700136113662
    Mg   -3.6600754629705
    Na   -1.4103160801321
    S(-2)   -142.59757464842
    S(6)   -3.9853414326714
  -gammas
  -Isotopes
SOLUTION_RAW       23 Solution after simulation 4.
  -temp              25
  -pH                8.0006143514519
  -pe                12.604808201176
  -mu                0.016089997931139
  -ah2o              0.9994727210283
  -total_h           111.01934560237
  -total_o           55.533471806405
  -cb                0.0008967685742468
  -mass_water        0.99998358965212
  -total_alkalinity  0.0088875067430601
  -totals
    As   5.4854915544999e-08
    C   0.0089810910172293
    Ca   0.00016782503780945
    Cl   0.0058560949348707
    Mg   0.00012123595784102
    Na   0.015540172946082
    S   0.00023893491514481
  -activities
    As   -14.308003431089
    C(-4)   -144.21653041019
    C(4)   -4.4436083884344
    Ca   -4.0362214867194
    Cl   -2.2885282271872
    Mg   -4.1665617364117
    Na   -1.86493919675
    S(-2)   -143.0579797109
    S(6)   -3.8649010740774
  -gammas
  -Isotopes
SOLUTION_RAW       24 Solution after simulation 4.
  -temp              25
  -pH                8.4677377470021
  -pe                12.137547480518
  -mu                0.0096080964158318
  -ah2o              0.9996913885121
  -total_h           111.01840127816
  -total_o           55.531230099136
  -cb                -6.5705285996602e-05
  -mass_water        0.99998158065851
  -total_alkalinity  0.0083560142789771
  -totals
    As   3.6857263968316e-07
    C   0.0082359049205959
    Ca   5.9237441777419e-05
    Cl   0.00043563849869971
    Mg   4.1835517375437e-05
    Na   0.0089947110166003
    S   0.00023527043529309
  -activities
    As   -14.355431763657
    C(-4)   -144.70851170954
    C(4)   -4.0021548112571
    Ca   -4.4776750638968
    Cl   -3.4055902605327
    Mg   -4.6080153135891
    Na   -2.0922361529774
    S(-2)   -143.47670905088
    S(6)   -3.8172231634593
  -gammas
  -Isotopes
SOLUTION_RAW       25 Solution after simulation 4.
  -temp              25
  -pH                8.4512256273146
  -pe                12.154051692549
  -mu                0.0092705031939168
  -ah2o              0.99970266163046
  -total_h           111.01834173484
  -total_o           55.531017766258
  -cb                -0.00012592297055613
  -mass_water        0.99998162056747
  -total_alkalinity  0.008274828617702
  -totals
    As   3.4226244663744e-07
    C   0.008165258113319
    Ca   6.1349734838176e-05
    Cl   0.0002108485694399
    Mg   4.3397620661532e-05
    Na   0.008620838701792
    S   0.00023511846687951
  -activities
    As   -14.352232137533
    C(-4)   -144.69472832854
    C(4)   -4.0214430858742
    Ca   -4.4583867892797
    Cl   -3.7200348526844
    Mg   -4.588727038972
    Na   -2.1099628479883
    S(-2)   -143.45751866498
    S(6)   -3.8145886865948
  -gammas
  -Isotopes
SOLUTION_RAW       26 Solution after simulation 4.
  -temp              25
  -pH                8.3628515035461
  -pe                12.24242096858
  -mu                0.0090925517724636
  -ah2o              0.99970815534391
  -total_h           111.01832502857
  -total_o           55.530838038287
  -cb                -0.00014251607498183
  -mass_water        0.99998185864903
  -total_alkalinity  0.0081720131062716
  -totals
    As   2.3423044228448e-07
    C   0.0081055184780891
    Ca   7.4037608580255e-05
    Cl   0.00014908620237204
    Mg   5.2734308838582e-05
    Na   0.0083954270545755
    S   0.00023507671265457
  -activities
    As   -14.34092900659
    C(-4)   -144.60833464008
    C(4)   -4.1118314710515
    Ca   -4.3679984041023
    Cl   -3.8701870639621
    Mg   -4.4983386537947
    Na   -2.120960482576
    S(-2)   -143.36835941273
    S(6)   -3.8138342683713
  -gammas
  -Isotopes
SOLUTION_RAW       27 Solution after simulation 4.
  -temp              25
  -pH                5.4526959922884
  -pe                15.212035802796
  -mu                3.6788889181552
  -ah2o              0.88957498611319
  -total_h           111.04161369769
  -total_o           55.584351643285
  -cb                0.027648336377519
  -mass_water        1.0001460436714
  -total_alkalinity  0.012967238663748
  -totals
    As   1.9471630259578e-08
    C   0.023379716070561
    Ca   0.20349989172565
    Cl   3.3667983340114
    Mg   0.095162556111434
    Na   2.8151112082265
    S   0.0025110876881945
  -activities
    As   -10.699014344903
    C(-4)   -142.44056468584
    C(4)   -7.440770111024
    Ca   -1.0390597641298
    Cl   0.27744499648768
    Mg   -1.1694000138222
    Na   0.44736175837037
    S(-2)   -141.06420595311
    S(6)   -4.146925128281
  -gammas
  -Isotopes
SOLUTION_RAW       28 Solution after simulation 4.
  -temp              25
  -pH                5.7436998891646
  -pe                14.891958135823
  -mu                1.6616257500363
  -ah2o              0.94928876861074
  -total_h           111.05897852579
  -total_o           55.610919008852
  -cb                0.044811355395489
  -mass_water        1.0002754294657
  -total_alkalinity  0.015983360536836
  -totals
    As   5.619666882779e-09
    C   0.034031751526484
    Ca   0.079001786282138
    Cl   1.5079770166198
    Mg   0.04501413868155
    Na   1.323248764845
    S   0.0012544383002943
  -activities
    As   -11.819044327465
    C(-4)   -142.22712454759
    C(4)   -6.7932654297377
    Ca   -1.6865644454161
    Cl   -0.061395013241245
    Mg   -1.8169046951085
    Na   0.0014377837426318
    S(-2)   -141.26384971341
    S(6)   -4.1752921638456
  -gammas
  -Isotopes
SOLUTION_RAW       29 Solution after simulation 4.
  -temp              25
  -pH                6.1610198863452
  -pe                14.455695777276
  -mu                0.59753187526548
  -ah2o              0.98122957236929
  -total_h           111.05048298237
  -total_o           55.594233707549
  -cb                0.033659273074716
  -mass_water        1.0001947571453
  -total_alkalinity  0.01645796690377
  -totals
    As   1.6726960298441e-09
    C   0.028988485501687
    Ca   0.022086062386995
    Cl   0.53151444995959
    Mg   0.014316889815985
    Na   0.51001439587909
    S   0.0005943043371363
  -activities
    As   -12.972100441981
    C(-4)   -142.36884594424
    C(4)   -6.20876897056
    Ca   -2.2710609045938
    Cl   -0.47410392366919
    Mg   -2.4014011542861
    Na   -0.44455883623861
    S(-2)   -141.6109900552
    S(6)   -4.1991623457959
  -gammas
  -Isotopes
SOLUTION_RAW       30 Solution after simulation 4.
  -temp              25
  -pH                6.6417301842259
  -pe                13.967430035775
  -mu                0.20159022444398
  -ah2o              0.99346397811502
  -total_h           111.03562173719
  -total_o           55.568541385537
  -cb                0.017692914653192
  -mass_water        1.0000703586521
  -total_alkalinity  0.015421090205974
  -totals
    As   1.3480649556073e-09
    C   0.020596341224223
    Ca   0.0050632579614849
    Cl   0.16973111710571
    Mg   0.0035105231371732
    Na   0.18639700517162
    S   0.00034972202799599
  -activities
    As   -13.732630308584
    C(-4)   -142.7414184472
    C(4)   -5.6642199479891
    Ca   -2.8156099271647
    Cl   -0.91809154623724
    Mg   -2.945950176857
    Na   -0.86031966150241
    S(-2)   -141.99974667528
    S(6)   -4.1461263448917
  -gammas
  -Isotopes
SOLUTION_RAW       31 Solution after simulation 4.
  -temp              25
  -pH                7.271461606845
  -pe                13.334960235175
  -mu                0.063916923770048
  -ah2o              0.99788701021154
  -total_h           111.02489295982
  -total_o           55.547384697909
  -cb                0.0065741690469625
  -mass_water        1.0000005433483
  -total_alkalinity  0.012473641343406
  -totals
    As   4.6167261926991e-09
    C   0.013600582883754
    Ca   0.00094255952285135
    Cl   0.046340988761327
    Mg   0.00067568491629934
    Na   0.062684924050732
    S   0.00026630458030576
  -activities
    As   -14.149941815199
    C(-4)   -143.38676061088
    C(4)   -5.0662170029443
    Ca   -3.4136128722095
    Cl   -1.4328517100283
    Mg   -3.5439531219019
    Na   -1.2968918809979
    S(-2)   -142.48797515795
    S(6)   -4.0188127817667
  -gammas
  -Isotopes
SOLUTION_RAW       32 Solution after simulation 4.
  -temp              25
  -pH                8.3653719953303
  -pe                12.239976146914
  -mu                0.012520016726533
  -ah2o              0.9995919877205
  -total_h           111.01881554184
  -total_o           55.532382629881
  -cb                0.00035652477894733
  -mass_water        0.99998184426357