#PHAST restart file
#Prefix: ex4
#Date: Wed May 17 11:23:51 2006
#Current model time: 100000
#nx, ny, nz: 16, 9, 5
SOLUTION_RAW       -2 
  -temp              25
  -pH                7
  -pe                4
  -mu                1e-07
  -ah2o              1
  -total_h           111.01974134192
  -total_o           55.535325076996
  -cb                0.0012883279474832
  -mass_water        1
  -total_alkalinity  0
  -totals
    As   4.1908616393791e-07
    C   0.0096003939799781
    Ca   9.3009440337653e-05
    Cl   0.0032689522220291
    Mg   6.651413724726e-05
    Na   0.014445651732876
    S   0.00023718575024408
  -activities
    As   -8.3776966770917
    C(-4)   -4.0177109440626
    C(4)   -4.0177109440626
    Ca   -6.0314729688818
    Cl   -4.4855914268839
    Mg   -6.1770860377654
    Na   -3.8402628596622
    S(-2)   -5.6249114062701
    S(6)   -5.6249114062701
  -gammas
  -Isotopes
SOLUTION_RAW       0 Solution after simulation 4.
  -temp              25
  -pH                6.7019757081599
  -pe                13.906386037554
  -mu                0.15187745272502
  -ah2o              0.99493902966543
  -total_h           111.04496069746
  -total_o           55.591992995032
  -cb                0.027064642779181
  -mass_water        1.0000973948971
  -total_alkalinity  0.02177233227655
  -totals
    As   1.2914646539274e-09
    C   0.028475057257646
    Ca   0.0028534334238185
    Cl   0.11279316124226
    Mg   0.0019985697624908
    Na   0.15254859008896
    S   0.0003112294360585
  -activities
    As   -13.824935963412
    C(-4)   -142.62895769705
    C(4)   -5.4357229145944
    Ca   -3.0441069605594
    Cl   -1.0825730675251
    Mg   -3.1744472102518
    Na   -0.93949417423333
    S(-2)   -142.03783022377
    S(6)   -4.127774770451
  -gammas
  -Isotopes
SOLUTION_RAW       1 Solution after simulation 4.
  -temp              25
  -pH                7.6918752838151
  -pe                12.914058647044
  -mu                0.036976817453168
  -ah2o              0.99876113715851
  -total_h           111.02544318748
  -total_o           55.550882446797
  -cb                0.0070665769521928
  -mass_water        0.99998954340941
  -total_alkalinity  0.014332063829899
  -totals
    As   1.8710359960129e-08
    C   0.014784505696604
    Ca   0.0002687800699626
    Cl   0.018248531728739
    Mg   0.0001931411594082
    Na   0.039217974305422
    S   0.0002473127714866
  -activities
    As   -14.262826460638
    C(-4)   -143.72502285213
    C(4)   -4.5664159495115
    Ca   -3.9134139256423
    Cl   -1.8184249558764
    Mg   -4.0437541753347
    Na   -1.4847747214647
    S(-2)   -142.84276627162
    S(6)   -3.9555730774445
  -gammas
  -Isotopes
SOLUTION_RAW       2 Solution after simulation 4.
  -temp              25
  -pH                8.4576856145585
  -pe                12.1477402353
  -mu                0.015207989182156
  -ah2o              0.99950181823096
  -total_h           111.0200412817
  -total_o           55.536318306813
  -cb                0.0015903164131533
  -mass_water        0.99998165416693
  -total_alkalinity  0.010093307160617
  -totals
    As   3.6986051144607e-07
    C   0.0099316387730075
    Ca   5.6482705484303e-05
    Cl   0.0034869870320329
    Mg   3.9670299311338e-05
    Na   0.01545334094627
    S   0.0002373332447733
  -activities
    As   -14.371826378897
    C(-4)   -144.62890996862
    C(4)   -3.9417811844336
    Ca   -4.5380486907203
    Cl   -2.5123257004195
    Mg   -4.6683889404126
    Na   -1.8669330311616
    S(-2)   -143.5073244095
    S(6)   -3.8570976730714
  -gammas
  -Isotopes
SOLUTION_RAW       3 Solution after simulation 4.
  -temp              25
  -pH                8.6951643512081
  -pe                11.910155855616
  -mu                0.010868583772988
  -ah2o              0.99965298526226
  -total_h           111.01874083354
  -total_o           55.532730106987
  -cb                0.00027453325411141
  -mass_water        0.99998113805212
  -total_alkalinity  0.0090138885609537
  -totals
    As   9.7463548466358e-07
    C   0.0087351520614327
    Ca   3.6733888104957e-05
    Cl   0.00080560661097623
    Mg   2.5269153685749e-05
    Na   0.010442038039614
    S   0.00023552053083453
  -activities
    As   -14.394074404594
    C(-4)   -144.91814358293
    C(4)   -3.7567053759593
    Ca   -4.7231244991945
    Cl   -3.1411217262574
    Mg   -4.8534647488868
    Na   -2.0304757860399
    S(-2)   -143.71342083708
    S(6)   -3.8262976884262
  -gammas
  -Isotopes
SOLUTION_RAW       4 Solution after simulation 4.
  -temp              25
  -pH                8.5703287294232
  -pe                12.034957072348
  -mu                0.0095631139659865
  -ah2o              0.99969423526336
  -total_h           111.01839837573
  -total_o           55.531389706863
  -cb                -6.9563508097087e-05
  -mass_water        0.99998136011721
  -total_alkalinity  0.0084656579476482
  -totals
    As   5.6933790437388e-07
    C   0.0082889504149934
    Ca   4.7797830390282e-05
    Cl   0.00026350178905651
    Mg   3.3425032059557e-05
    Na   0.0089680280023302
    S   0.00023515408035896
  -activities
    As   -14.369535267274
    C(-4)   -144.80984247606
    C(4)   -3.8982970226955
    Ca   -4.5815328524583
    Cl   -3.6238389919641
    Mg   -4.7118731021507
    Na   -2.0936599048504
    S(-2)   -143.57839906688
    S(6)   -3.8163151476099
  -gammas
  -Isotopes
SOLUTION_RAW       5 Solution after simulation 4.
  -temp              25
  -pH                8.0214020512561
  -pe                12.583862191999
  -mu                0.0088576534077706
  -ah2o              0.99971827819191
  -total_h           111.01832666035
  -total_o           55.530388378301
  -cb                -0.00014034354917429
  -mass_water        0.99998332659406
  -total_alkalinity  0.007870723919424
  -totals
    As   5.4519563101969e-08
    C   0.007955870620749
    Ca   0.00015813041668417
    Cl   0.00015034097443542
    Mg   0.00011460547605464
    Na   0.0078054592822147
    S   0.00023507760172201
  -activities
    As   -14.303538552024
    C(-4)   -144.27561913567
    C(4)   -4.4620680652829
    Ca   -4.017761809871
    Cl   -3.8660377878986
    Mg   -4.1481020595633
    Na   -2.1517468355368
    S(-2)   -143.02981230526
    S(6)   -3.8167856013075
  -gammas
  -Isotopes
SOLUTION_RAW       6 Solution after simulation 4.
  -temp              25
  -pH                8.0279264065882
  -pe                12.577337296928
  -mu                0.0088356370368011
  -ah2o              0.9997189247418
  -total_h           111.01831724118
  -total_o           55.530369243223
  -cb                -0.00014983227977637
  -mass_water        0.99998328532086
  -total_alkalinity  0.0078674453547171
  -totals
    As   5.5971760227062e-08
    C   0.007949490737
    Ca   0.00015587003948111
    Cl   0.00013877531490428
    Mg   0.00011294445930413
    Na   0.0077889548738017
    S   0.00023506975488345
  -activities
    As   -14.30460271399
    C(-4)   -144.28235277719
    C(4)   -4.4557565626347
    Ca   -4.0240733125191
    Cl   -3.9007546925557
    Mg   -4.1544135622114
    Na   -2.1526242557224
    S(-2)   -143.03600805861
    S(6)   -3.8164603280383
  -gammas
  -Isotopes
SOLUTION_RAW       7 Solution after simulation 4.
  -temp              25
  -pH                8.1193318146263
  -pe                12.485933697285
  -mu                0.0088812038691775
  -ah2o              0.99971614178478
  -total_h           111.01831415414
  -total_o           55.530483743662
  -cb                -0.00015300991845179
  -mass_water        0.99998279110374
  -total_alkalinity  0.0079468581810932
  -totals
    As   8.2510534538228e-08
    C   0.007987621956471
    Ca   0.00012667508982024
    Cl   0.00013710106576937
    Mg   9.1463403377201e-05
    Na   0.0079648920850162
    S   0.0002350686162329
  -activities
    As   -14.314326786592
    C(-4)   -144.37084296661
    C(4)   -4.3614250181554
    Ca   -4.1184048569984
    Cl   -3.9061255819883
    Mg   -4.2487451066908
    Na   -2.1430971467964
    S(-2)   -143.12608333715
    S(6)   -3.8151204661947
  -gammas
  -Isotopes
SOLUTION_RAW       8 Solution after simulation 4.
  -temp              25
  -pH                7.6920448126626
  -pe                12.913211685888
  -mu                0.0086944213372069
  -ah2o              0.99973463766417
  -total_h           111.01831733237
  -total_o           55.529797048808
  -cb                -0.0001496418850461
  -mass_water        0.99998615148827
  -total_alkalinity  0.0074859444275646
  -totals
    As   1.3701657712583e-08
    C   0.0077588154909954
    Ca   0.00034386179682515
    Cl   0.00013419124633204
    Mg   0.00025128693968717
    Na   0.0067503433052355
    S   0.00023506664387596
  -activities
    As   -14.272203359753
    C(-4)   -143.9652450276
    C(4)   -4.8104492646845
    Ca   -3.6693806104693
    Cl   -3.9150329725835
    Mg   -3.7997208601617
    Na   -2.2142554400844
    S(-2)   -142.70997684309
    S(6)   -3.8263411537108
  -gammas
  -Isotopes
SOLUTION_RAW       9 Solution after simulation 4.
  -temp              25
  -pH                6.7303372896305
  -pe                13.87786806337
  -mu                0.14432889448636
  -ah2o              0.99518880963947
  -total_h           111.04375212904
  -total_o           55.58967056467
  -cb                0.025822970300384
  -mass_water        1.000089301585
  -total_alkalinity  0.02146338901562
  -totals
    As   1.3400552331022e-09
    C   0.027701681853276
    Ca   0.0026561358201478
    Cl   0.10640837731734
    Mg   0.0018636134952844
    Na   0.14526906544327
    S   0.00030691305036812
  -activities
    As   -13.849357006816
    C(-4)   -142.65968335095
    C(4)   -5.4106494994208
    Ca   -3.069180375733
    Cl   -1.1055879458445
    Mg   -3.1995206254253
    Na   -0.95908556961481
    S(-2)   -142.05998467381
    S(6)   -4.1223827185007
  -gammas
  -Isotopes
SOLUTION_RAW       10 Solution after simulation 4.
  -temp              25
  -pH                7.7215981483759
  -pe                12.884299570454
  -mu                0.035454893494638
  -ah2o              0.99881279837926
  -total_h           111.0250239763
  -total_o           55.549753748244
  -cb                0.0066424636475921
  -mass_water        0.99998876594589
  -total_alkalinity  0.014003400982865
  -totals
    As   2.0814014103734e-08
    C   0.014408413976092
    Ca   0.00025367456971761
    Cl   0.017273498292393
    Mg   0.00018231186205795
    Na   0.037540718110473
    S   0.00024665361858021
  -activities
    As   -14.268683423049
    C(-4)   -143.76341287326
    C(4)   -4.5455825519246
    Ca   -3.9342473232292
    Cl   -1.8409237207712
    Mg   -4.0645875729215
    Na   -1.5025400676198
    S(-2)   -142.86711557799
    S(6)   -3.9503993701771
  -gammas
  -Isotopes
SOLUTION_RAW       11 Solution after simulation 4.
  -temp              25
  -pH                8.4496076942286
  -pe                12.155812618754
  -mu                0.015003605564919
  -ah2o              0.99950861368498
  -total_h           111.01996833584
  -total_o           55.536076409442
  -cb                0.0015169811887889
  -mass_water        0.999981672658
  -total_alkalinity  0.010005389854964
  -totals
    As   3.570517275828e-07
    C   0.0098510300125305
    Ca   5.7656385520411e-05
    Cl   0.0034078279954861
    Mg   4.0535236339969e-05
    Na   0.015208732301015
    S   0.00023727972688469
  -activities
    As   -14.369938151148
    C(-4)   -144.62386442941
    C(4)   -3.9529269231109
    Ca   -4.5269029520429
    Cl   -2.5219762935593
    Mg   -4.6572432017353
    Na   -1.8735298597298
    S(-2)   -143.49795356092
    S(6)   -3.8558372300028
  -gammas
  -Isotopes
SOLUTION_RAW       12 Solution after simulation 4.
  -temp              25
  -pH                8.6485393392666
  -pe                11.956776782408
  -mu                0.01072930808505
  -ah2o              0.99965650558604
  -total_h           111.01871803403
  -total_o           55.532551909847
  -cb                0.00025216665000488
  -mass_water        0.99998121658062
  -total_alkalinity  0.0089180847356217
  -totals
    As   8.0038804822069e-07
    C   0.0086759834795128
    Ca   4.0297382372972e-05
    Cl   0.00079222597542949
    Mg   2.7889159821222e-05
    Na   0.01029792760093
    S   0.00023551146810726
  -activities
    As   -14.385869343048
    C(-4)   -144.87284052585
    C(4)   -3.8046774165811
    Ca   -4.6751524585727
    Cl   -3.1481254252514
    Mg   -4.8054927082651
    Na   -2.036106770629
    S(-2)   -143.66585990569
    S(6)   -3.825383803906
  -gammas
  -Isotopes
SOLUTION_RAW       13 Solution after simulation 4.
  -temp              25
  -pH                8.414789693244
  -pe                12.190489726839
  -mu                0.0093516074548175
  -ah2o              0.99969963810995
  -total_h           111.01839172418
  -total_o           55.531117528197
  -cb                -7.5439142035461e-05
  -mass_water        0.99998171714053
  -total_alkalinity  0.0082910890927982
  -totals
    As   2.9334727099461e-07
    C   0.0081985927449427
    Ca   6.6055471844869e-05
    Cl   0.00025404953163201
    Mg   4.6855054518696e-05
    Na   0.0087144671236919
    S   0.00023514767337668
  -activities
    As   -14.347824371203
    C(-4)   -144.65634520671
    C(4)   -4.0559217199708
    Ca   -4.4239081551831
    Cl   -3.6392593819884
    Mg   -4.5542484048754
    Na   -2.1053813217987
    S(-2)   -143.4220920193
    S(6)   -3.8155886415253
  -gammas
  -Isotopes
SOLUTION_RAW       14 Solution after simulation 4.
  -temp              25
  -pH                7.642876024076
  -pe                12.962380518013
  -mu                0.0087222162170264
  -ah2o              0.99973646571921
  -total_h           111.01833472197
  -total_o           55.529738570103
  -cb                -0.00013214625730493
  -mass_water        0.99998676597417
  -total_alkalinity  0.0074294831567634
  -totals
    As   1.1235891019772e-08
    C   0.0077393274012101
    Ca   0.00038723620791985
    Cl   0.00014947249697814
    Mg   0.00028320025460503
    Na   0.0065761017244371
    S   0.00023507700857963
  -activities
    As   -14.266522816683
    C(-4)   -143.91933549741
    C(4)   -4.8628745052906
    Ca   -3.6169553698632
    Cl   -3.8682575878282
    Mg   -3.7472956195555
    Na   -2.2256436581032
    S(-2)   -142.66357656295
    S(6)   -3.8291060596659
  -gammas
  -Isotopes
SOLUTION_RAW       15 Solution after simulation 4.
  -temp              25
  -pH                7.5927661022167
  -pe                13.012488725022
  -mu                0.0086891497706412
  -ah2o              0.9997409562901
  -total_h           111.01832630165
  -total_o           55.529593587889
  -cb                -0.00014063052850028
  -mass_water        0.99998743640495
  -total_alkalinity  0.0073413150026488
  -totals
    As   9.1545578906048e-09
    C   0.0076910036289903
    Ca   0.00043836658036396
    Cl   0.00013662632006674
    Mg   0.0003208360404867
    Na   0.0062890513082522
    S   0.00023506830059017
  -activities
    As   -14.262086588165
    C(-4)   -143.87430386829
    C(4)   -4.9180706106901
    Ca   -3.5617592644637
    Cl   -3.9072116778977
    Mg   -3.6920995141561
    Na   -2.2449261552381
    S(-2)   -142.61616397438
    S(6)   -3.8318093354814
  -gammas
  -Isotopes
SOLUTION_RAW       16 Solution after simulation 4.
  -temp              25
  -pH                7.5790977360682
  -pe                13.026156686103
  -mu                0.0086835360353238
  -ah2o              0.99974215824872
  -total_h           111.01832455001
  -total_o           55.529553987126
  -cb                -0.00014239185744388
  -mass_water        0.99998763050534
  -total_alkalinity  0.0073166764205681
  -totals
    As   8.658148037409e-09
    C   0.0076778037799337
    Ca   0.0004535542447334
    Cl   0.00013496282474367
    Mg   0.00033201496361846
    Na   0.0062082519645797
    S   0.00023506716763376
  -activities
    As   -14.260971951228
    C(-4)   -143.86208645458
    C(4)   -4.9331915519633
    Ca   -3.5466383231905
    Cl   -3.9125195436978
    Mg   -3.6769785728829
    Na   -2.2505215394467
    S(-2)   -142.603328796
    S(6)   -3.832643594175
  -gammas
  -Isotopes
SOLUTION_RAW       17 Solution after simulation 4.
  -temp              25
  -pH                7.4791814064171
  -pe                13.12607116666
  -mu                0.0086900841412045
  -ah2o              0.99975069689346
  -total_h           111.01832917207
  -total_o           55.529290701171
  -cb                -0.00013775791868942
  -mass_water        0.99998921850225
  -total_alkalinity  0.0071365315848878
  -totals
    As   5.8086933396606e-09
    C   0.0075900471943416
    Ca   0.00058299221177825
    Cl   0.00013389243278804
    Mg   0.00042727855417445
    Na   0.0055822632591403
    S   0.00023506644168297
  -activities
    As   -14.251305442984
    C(-4)   -143.77320025876
    C(4)   -5.0441420953636
    Ca   -3.4356877797903
    Cl   -3.9159928587592
    Mg   -3.5660280294826
    Na   -2.2966319719233
    S(-2)   -142.51091287543
    S(6)   -3.8401444861903
  -gammas
  -Isotopes
SOLUTION_RAW       18 Solution after simulation 4.
  -temp              25
  -pH                6.7939258290146
  -pe                13.813967869923
  -mu                0.1292804958899
  -ah2o              0.99568621261488
  -total_h           111.04137321942
  -total_o           55.58510404682
  -cb                0.023377722778393
  -mass_water        1.0000733387273
  -total_alkalinity  0.020859561879052
  -totals
    As   1.4741088223018e-09
    C   0.026181000688746
    Ca   0.0022590256867534
    Cl   0.093661759707663
    Mg   0.0015905912101761
    Na   0.13079640342917
    S   0.00029829569190892
  -activities
    As   -13.899926534913
    C(-4)   -142.72768717705
    C(4)   -5.3533184522454
    Ca   -3.1265114229084
    Cl   -1.1561146964447
    Mg   -3.2568516726008
    Na   -1.0010893285228
    S(-2)   -142.10983219706
    S(6)   -4.1102669004707
  -gammas
  -Isotopes
SOLUTION_RAW       19 Solution after simulation 4.
  -temp              25
  -pH                7.7679407873402
  -pe                12.837905148463
  -mu                0.033317599963374
  -ah2o              0.99888536535181
  -total_h           111.02438936799
  -total_o           55.548033138476
  -cb                0.00600122780047
  -mass_water        0.99998767286941
  -total_alkalinity  0.013497121595098
  -totals
    As   2.4640964753082e-08
    C   0.013835051514597
    Ca   0.00023227436718789
    Cl   0.015971120930519
    Mg   0.00016694961985363
    Na   0.035162593197586
    S   0.000245773102309
  -activities
    As   -14.277360771397
    C(-4)   -143.82376317865
    C(4)   -4.5135671956185
    Ca   -3.9662626795354
    Cl   -1.8730053405462
    Mg   -4.0966029292277
    Na   -1.5291793426466
    S(-2)   -142.90547840555
    S(6)   -3.942707628775
  -gammas
  -Isotopes
SOLUTION_RAW       20 Solution after simulation 4.
  -temp              25
  -pH                8.4299776845849
  -pe                12.175440371162
  -mu                0.014952895761925
  -ah2o              0.99951006061188
  -total_h           111.01992136668
  -total_o           55.535895497639
  -cb                0.001470277669137
  -mass_water        0.99998172313192
  -total_alkalinity  0.0099315835689491
  -totals
    As   3.2871431893425e-07
    C   0.0097907454217904
    Ca   6.0304205870221e-05
    Cl   0.0034569954554069
    Mg   4.2477203038294e-05
    Na   0.015128248448772
    S   0.00023731292938876
  -activities
    As   -14.366699783907
    C(-4)   -144.60653299017
    C(4)   -3.9748716755762
    Ca   -4.5049581995776
    Cl   -2.5156748343604
    Mg   -4.63529844927
    Na   -1.8757064551873
    S(-2)   -143.47801377092
    S(6)   -3.8555429946799
  -gammas
  -Isotopes
SOLUTION_RAW       21 Solution after simulation 4.
  -temp              25
  -pH                8.6059378554128
  -pe                11.99937750341
  -mu                0.010722059574183
  -ah2o              0.99965583520033
  -total_h           111.01872589777
  -total_o           55.532488232877
  -cb                0.00026067093281229
  -mass_water        0.99998129333161
  -total_alkalinity  0.0088676212640482
  -totals
    As   6.6875867762287e-07
    C   0.0086549215167401
    Ca   4.3874928220599e-05
    Cl   0.00084573158978434
    Mg   3.0517504560064e-05
    Na   0.010297002918142
    S   0.00023554761919064
  -activities
    As   -14.379203345073
    C(-4)   -144.83024003369
    C(4)   -3.8472899099635
    Ca   -4.6325399651904
    Cl   -3.1197278587918
    Mg   -4.7628802148827
    Na   -2.0360145741073
    S(-2)   -143.62335560979
    S(6)   -3.825492823917
  -gammas
  -Isotopes
SOLUTION_RAW       22 Solution after simulation 4.
  -temp              25
  -pH                8.3495426435626
  -pe                12.255735441056
  -mu                0.0093158029821605
  -ah2o              0.99970053492351
  -total_h           111.01839911208
  -total_o           55.531047496373
  -cb                -6.7755040918259e-05
  -mass_water        0.99998190367123
  -total_alkalinity  0.0082369832610834
  -totals
    As   2.2205736319024e-07
    C   0.0081753410424015
    Ca   7.5923429460925e-05
    Cl   0.00027082150258777
    Mg   5.4112713207418e-05
    Na   0.0086505175050496
    S   0.00023515900513507
  -activities
    As   -14.339658861116
    C(-4)   -144.59176479237
    C(4)   -4.1218447690801
    Ca   -4.3579851060737
    Cl   -3.6114187981305
    Mg   -4.4883253557661
    Na   -2.1084063760493
    S(-2)   -143.35710564358
    S(6)   -3.8158579572675
  -gammas
  -Isotopes
SOLUTION_RAW       23 Solution after simulation 4.
  -temp              25
  -pH                7.6543295660842
  -pe                12.950927466861
  -mu                0.0087350877814811
  -ah2o              0.99973532799173
  -total_h           111.01833754628
  -total_o           55.529773092057
  -cb                -0.00012929191722581
  -mass_water        0.99998662168658
  -total_alkalinity  0.0074496438791464
  -totals
    As   1.1776988032544e-08
    C   0.0077508329149333
    Ca   0.00037648133816603
    Cl   0.00015585170965768
    Mg   0.00027528319353737
    Na   0.006642848986256
    S   0.00023508130054828
  -activities
    As   -14.267583969633
    C(-4)   -143.92965843309
    C(4)   -4.8502879052545
    Ca   -3.6295419698993
    Cl   -3.8501356617574
    Mg   -3.7598822195916
    Na   -2.2212919853648
    S(-2)   -142.67450894914
    S(6)   -3.8285829404562
  -gammas
  -Isotopes
SOLUTION_RAW       24 Solution after simulation 4.
  -temp              25
  -pH                7.5935418335516
  -pe                13.01171289663
  -mu                0.0086853099559018
  -ah2o              0.99974103674195
  -total_h           111.0183245731
  -total_o           55.529590516937
  -cb                -0.00014236904472715
  -mass_water        0.99998742420277
  -total_alkalinity  0.0073410052573558
  -totals
    As   9.1774591000189e-09
    C   0.0076899798000604
    Ca   0.00043757614822796
    Cl   0.00013506119198728
    Mg   0.00032025528593877
    Na   0.0062881781781142
    S   0.00023506723218636
  -activities
    As   -14.262409008453
    C(-4)   -143.87508862926
    C(4)   -4.9173048875932
    Ca   -3.5625249875606
    Cl   -3.9122069636103
    Mg   -3.6928652372529
    Na   -2.2449786324244
    S(-2)   -142.61686145811
    S(6)   -3.8317320891167
  -gammas
  -Isotopes
SOLUTION_RAW       25 Solution after simulation 4.
  -temp              25
  -pH                7.5422337755317
  -pe                13.063019898637
  -mu                0.0086815774413582
  -ah2o              0.99974515116584
  -total_h           111.0183254732
  -total_o           55.529459680069
  -cb                -0.00014146752367597
  -mass_water        0.99998818311162
  -total_alkalinity  0.0072528855638402
  -totals
    As   7.4629038036399e-09
    C   0.0076463701436209
    Ca   0.00049724857775802
    Cl   0.00013407432654384
    Mg   0.00036417338234334
    Na   0.0059927890378297
    S   0.00023506656421028
  -activities
    As   -14.257562532266
    C(-4)   -143.82905645343
    C(4)   -4.9738923923663
    Ca   -3.5059374827875
    Cl   -3.9153839809362
    Mg   -3.6362777324799
    Na   -2.2658350658079
    S(-2)   -142.56897321156
    S(6)   -3.8351537867639
  -gammas
  -Isotopes
SOLUTION_RAW       26 Solution after simulation 4.
  -temp              25
  -pH                7.4647328080168
  -pe                13.140519521325
  -mu                0.0086934708848909
  -ah2o              0.99975208808463
  -total_h           111.01832991301
  -total_o           55.52924909449
  -cb                -0.00013701532272137
  -mass_water        0.9999894720894
  -total_alkalinity  0.0071080527787185
  -totals
    As   5.4864556142459e-09
    C   0.0075761789586417
    Ca   0.00060486305778769
    Cl   0.00013377509049027
    Mg   0.00044337499901772
    Na   0.0054784746435394
    S   0.00023506636210363
  -activities
    As   -14.249919518622
    C(-4)   -143.76054812338
    C(4)   -5.0603869561483
    Ca   -3.4194429190056
    Cl   -3.91638124439
    Mg   -3.5497831686979
    Na   -2.3047803925584
    S(-2)   -142.49773995643
    S(6)   -3.8414192868676
  -gammas
  -Isotopes
SOLUTION_RAW       27 Solution after simulation 4.
  -temp              25
  -pH                6.8812067449181
  -pe                13.72632955493
  -mu                0.11204057947167
  -ah2o              0.99625605951679
  -total_h           111.03866073482
  -total_o           55.579867793714
  -cb                0.020589071807035
  -mass_water        1.0000553237313
  -total_alkalinity  0.020151894957228
  -totals
    As   1.7240209919692e-09
    C   0.024437257933273
    Ca   0.0018081355683111
    Cl   0.079064645438541
    Mg   0.0012784096691619
    Na   0.11420937807223
    S   0.00028842731017775
  -activities
    As   -13.961032645144
    C(-4)   -142.82023042984
    C(4)   -5.2734136200457
    Ca   -3.2064162551082
    Cl   -1.2234821505033
    Mg   -3.3367565048005
    Na   -1.0553088677031
    S(-2)   -142.1786981884
    S(6)   -4.0937172395173
  -gammas
  -Isotopes
SOLUTION_RAW       28 Solution after simulation 4.
  -temp              25
  -pH                7.7972656890654
  -pe                12.808552996879
  -mu                0.032249577334779
  -ah2o              0.99892165505215
  -total_h           111.02399626352
  -total_o           55.546962228105
  -cb                0.0056051350007966
  -mass_water        0.99998704134776
  -total_alkalinity  0.01317901843204
  -totals
    As   2.749281441466e-08
    C   0.013478120037953
    Ca   0.00022027209653334
    Cl   0.01542336145812
    Mg   0.00015831683191385
    Na   0.033941170032259
    S   0.00024540275269139
  -activities
    As   -14.282591293182
    C(-4)   -143.86248881684
    C(4)   -4.4938136960784
    Ca   -3.9860161790754
    Cl   -1.8871481383039
    Mg   -4.1163564287678
    Na   -1.5436022898076
    S(-2)   -142.93045285088
    S(6)   -3.9385120577736
  -gammas
  -Isotopes
SOLUTION_RAW       29 Solution after simulation 4.
  -temp              25
  -pH                8.4280604543648
  -pe                12.177363887288
  -mu                0.015239029011637
  -ah2o              0.99950034119353
  -total_h           111.01996232964
  -total_o           55.536022592733
  -cb                0.0015122880068149
  -mass_water        0.99998172475826
  -total_alkalinity  0.009974353520359
  -totals
    As   3.2680629356154e-07
    C   0.0098330665826259
    Ca   6.0565367897654e-05
    Cl   0.003680403649002
    Mg   4.2662330848366e-05
    Na   0.015435844463015
    S   0.00023746393901899
  -activities
    As   -14.367115048706
    C(-4)   -144.60324774202
    C(4)   -3.9753832691068
    Ca   -4.504446606047
    Cl   -2.488929286326
    Mg   -4.6347868557393
    Na   -1.8673847763574
    S(-2)   -143.47781676751
    S(6)   -3.8572298234184
  -gammas
  -Isotopes
SOLUTION_RAW       30 Solution after simulation 4.
  -temp              25
  -pH                8.6520288980966
  -pe                11.953295441338
  -mu                0.011069200518172
  -ah2o              0.9996451495257
  -total_h           111.01879666973
  -total_o           55.532810899024
  -cb                0.00033176651932575
  -mass_water        0.99998120767903
  -total_alkalinity  0.0090111491451768
  -totals
    As   8.1427898428667e-07
    C   0.00876225968692
    Ca   3.9933629393694e-05
    Cl   0.00099792600562059
    Mg   2.7616272624009e-05
    Na   0.010677857133339
    S   0.0002356504941336
  -activities
    As   -14.387824667338
    C(-4)   -144.87292501887
    C(4)   -3.7977316265348
    Ca   -4.682098248619
    Cl   -3.0485320561751
    Mg   -4.8124384983114
    Na   -2.0210172853423
    S(-2)   -143.67196273393
    S(6)   -3.8279507108067
  -gammas
  -Isotopes
SOLUTION_RAW       31 Solution after simulation 4.
  -temp              25
  -pH                8.5478328904327
  -pe                12.057455066328
  -mu                0.0096576705749343
  -ah2o              0.99969070103854
  -total_h           111.01843263222
  -total_o           55.53145739406
  -cb                -3.4795350242343e-05
  -mass_water        0.9999814055494
  -total_alkalinity  0.0084762237293066
  -totals
    As   5.1839942059862e-07
    C   0.0083115695219816
    Ca   4.9977586528051e-05
    Cl   0.00033550777270922
    Mg   3.5025403874845e-05
    Na   0.0090778540200834
    S   0.00023520272484755
  -activities
    As   -14.366365307728
    C(-4)   -144.78597937912
    C(4)   -3.9194125080898
    Ca   -4.560417367064
    Cl   -3.5191169815691
    Mg   -4.6907576167564
    Na   -2.0885147579992
    S(-2)   -143.55682422173
    S(6)   -3.8172243823171
  -gammas
  -Isotopes
SOLUTION_RAW       32 Solution after simulation 4.
  -temp              25
  -pH                7.9834333232288
  -pe                12.621829870723
  -mu                0.0088299120008599