#PHAST restart file
#Prefix: ex4
#Date: Mon Oct 16 12:51:07 2006
#Current model time: 100000
#nx, ny, nz: 16, 9, 5
SOLUTION_RAW       -2 
  -temp              25
  -pH                7
  -pe                4
  -mu                1e-07
  -ah2o              1
  -total_h           111.01974134192
  -total_o           55.535325077016
  -cb                0.0012883279476681
  -mass_water        1
  -total_alkalinity  0
  -totals
    As   4.1908616405121e-07
    C   0.0096003939802753
    Ca   9.3009440328331e-05
    Cl   0.0032689522220291
    Mg   6.6514137240385e-05
    Na   0.014445651733425
    S   0.00023718575024583
  -activities
    As   -8.3776966769743
    C(-4)   -4.0177109440491
    C(4)   -4.0177109440491
    Ca   -6.0314729689253
    Cl   -4.4855914268839
    Mg   -6.1770860378103
    Na   -3.8402628596457
    S(-2)   -5.6249114062669
    S(6)   -5.6249114062669
  -gammas
  -Isotopes
SOLUTION_RAW       0 Solution after simulation 4.
  -temp              25
  -pH                6.7019757081605
  -pe                13.906386038738
  -mu                0.15187745272503
  -ah2o              0.99493902966539
  -total_h           111.04496069746
  -total_o           55.591992995037
  -cb                0.027064642779164
  -mass_water        1.0000973948971
  -total_alkalinity  0.021772332276586
  -totals
    As   1.2914646539296e-09
    C   0.028475057257683
    Ca   0.0028534334238101
    Cl   0.11279316124226
    Mg   0.0019985697624849
    Na   0.152548590089
    S   0.00031122943605851
  -activities
    As   -13.824935963413
    C(-4)   -142.62895770652
    C(4)   -5.4357229145931
    Ca   -3.0441069605608
    Cl   -1.0825730675251
    Mg   -3.1744472102531
    Na   -0.93949417423321
    S(-2)   -142.03783023325
    S(6)   -4.1277747704509
  -gammas
  -Isotopes
SOLUTION_RAW       1 Solution after simulation 4.
  -temp              25
  -pH                7.6918752838117
  -pe                12.914058648674
  -mu                0.036976817453336
  -ah2o              0.99876113715845
  -total_h           111.02544318748
  -total_o           55.550882446804
  -cb                0.0070665769522999
  -mass_water        0.99998954340941
  -total_alkalinity  0.014332063830016
  -totals
    As   1.8710359959897e-08
    C   0.014784505696729
    Ca   0.00026878006996303
    Cl   0.018248531728739
    Mg   0.00019314115940849
    Na   0.039217974305645
    S   0.00024731277148676
  -activities
    As   -14.262826460637
    C(-4)   -143.72502286514
    C(4)   -4.5664159495115
    Ca   -3.9134139256424
    Cl   -1.8184249558765
    Mg   -4.0437541753347
    Na   -1.4847747214624
    S(-2)   -142.84276628463
    S(6)   -3.9555730774449
  -gammas
  -Isotopes
SOLUTION_RAW       2 Solution after simulation 4.
  -temp              25
  -pH                8.4576856145475
  -pe                12.147740236664
  -mu                0.015207989182407
  -ah2o              0.99950181823091
  -total_h           111.0200412817
  -total_o           55.536318306819
  -cb                0.0015903164132864
  -mass_water        0.99998165416693
  -total_alkalinity  0.010093307160805
  -totals
    As   3.698605114299e-07
    C   0.0099316387731983
    Ca   5.6482705484863e-05
    Cl   0.0034869870320329
    Mg   3.9670299311741e-05
    Na   0.015453340946589
    S   0.00023733324477364
  -activities
    As   -14.371826378895
    C(-4)   -144.62890997943
    C(4)   -3.9417811844365
    Ca   -4.5380486907173
    Cl   -2.5123257004199
    Mg   -4.6683889404097
    Na   -1.866933031153
    S(-2)   -143.50732442032
    S(6)   -3.8570976730725
  -gammas
  -Isotopes
SOLUTION_RAW       3 Solution after simulation 4.
  -temp              25
  -pH                8.6951643513095
  -pe                11.910155856243
  -mu                0.010868583774017
  -ah2o              0.99965298526221
  -total_h           111.01874083354
  -total_o           55.532730106992
  -cb                0.00027453325455193
  -mass_water        0.99998113805212
  -total_alkalinity  0.0090138885617123
  -totals
    As   9.7463548508568e-07
    C   0.0087351520620871
    Ca   3.6733888096323e-05
    Cl   0.00080560661097631
    Mg   2.5269153679386e-05
    Na   0.010442038040844
    S   0.00023552053083491
  -activities
    As   -14.394074404615
    C(-4)   -144.91814358883
    C(4)   -3.7567053758308
    Ca   -4.723124499323
    Cl   -3.1411217262594
    Mg   -4.8534647490154
    Na   -2.0304757859911
    S(-2)   -143.71342084301
    S(6)   -3.8262976884337
  -gammas
  -Isotopes
SOLUTION_RAW       4 Solution after simulation 4.
  -temp              25
  -pH                8.5703287314286
  -pe                12.034957070607
  -mu                0.0095631139682056
  -ah2o              0.99969423526331
  -total_h           111.01839837573
  -total_o           55.531389706866
  -cb                -6.9563508544153e-05
  -mass_water        0.99998136011721
  -total_alkalinity  0.0084656579495298
  -totals
    As   5.6933790921004e-07
    C   0.0082889504156803
    Ca   4.7797830197422e-05
    Cl   0.00026350178905644
    Mg   3.3425031917724e-05
    Na   0.0089680280044387
    S   0.00023515408035883
  -activities
    As   -14.369535267582
    C(-4)   -144.80984309475
    C(4)   -3.8982970206977
    Ca   -4.5815328544561
    Cl   -3.6238389919689
    Mg   -4.7118731041484
    Na   -2.0936599047573
    S(-2)   -143.57839995932
    S(6)   -3.816315147617
  -gammas
  -Isotopes
SOLUTION_RAW       5 Solution after simulation 4.
  -temp              25
  -pH                8.021402046798
  -pe                12.583862196505
  -mu                0.0088576534061174
  -ah2o              0.99971827819204
  -total_h           111.01832666035
  -total_o           55.530388378297
  -cb                -0.00014034354867117
  -mass_water        0.99998332659409
  -total_alkalinity  0.0078707239157025
  -totals
    As   5.4519562071108e-08
    C   0.0079558706191207
    Ca   0.00015813041829357
    Cl   0.00015034097443541
    Mg   0.00011460547723876
    Na   0.007805459273408
    S   0.00023507760172189
  -activities
    As   -14.303538551575
    C(-4)   -144.27561909603
    C(4)   -4.4620680698868
    Ca   -4.0177618052671
    Cl   -3.866037787895
    Mg   -4.1481020549594
    Na   -2.1517468360199
    S(-2)   -143.02981223878
    S(6)   -3.8167856013894
  -gammas
  -Isotopes
SOLUTION_RAW       6 Solution after simulation 4.
  -temp              25
  -pH                8.0279264098029
  -pe                12.57733729374
  -mu                0.0088356370375872
  -ah2o              0.99971892474172
  -total_h           111.01831724117
  -total_o           55.530369243225
  -cb                -0.00014983228039239
  -mass_water        0.99998328532084
  -total_alkalinity  0.0078674453570838
  -totals
    As   5.5971760984113e-08
    C   0.0079494907378647
    Ca   0.00015587003834234
    Cl   0.00013877531490428
    Mg   0.0001129444584663
    Na   0.007788954879506
    S   0.00023506975488335
  -activities
    As   -14.304602714361
    C(-4)   -144.28235278053
    C(4)   -4.4557565593321
    Ca   -4.0240733158217
    Cl   -3.9007546925574
    Mg   -4.154413565514
    Na   -2.1526242554084
    S(-2)   -143.03600806197
    S(6)   -3.816460327977
  -gammas
  -Isotopes
SOLUTION_RAW       7 Solution after simulation 4.
  -temp              25
  -pH                8.119331812049
  -pe                12.485933699891
  -mu                0.0088812038677867
  -ah2o              0.99971614178485
  -total_h           111.01831415414
  -total_o           55.530483743659
  -cb                -0.00015300991832713
  -mass_water        0.99998279110375
  -total_alkalinity  0.0079468581789395
  -totals
    As   8.2510533634147e-08
    C   0.0079876219554524
    Ca   0.00012667509055484
    Cl   0.00013710106576937
    Mg   9.1463403917689e-05
    Na   0.0079648920804361
    S   0.00023506861623288
  -activities
    As   -14.31432678631
    C(-4)   -144.37084296366
    C(4)   -4.3614250208048
    Ca   -4.118404854349
    Cl   -3.9061255819852
    Mg   -4.2487451040414
    Na   -2.1430971470409
    S(-2)   -143.12608333396
    S(6)   -3.8151204662264
  -gammas
  -Isotopes
SOLUTION_RAW       8 Solution after simulation 4.
  -temp              25
  -pH                7.6920448095855
  -pe                12.913211688976
  -mu                0.0086944213377424
  -ah2o              0.99973463766431
  -total_h           111.01831733237
  -total_o           55.529797048805
  -cb                -0.00014964188407799
  -mass_water        0.99998615148831
  -total_alkalinity  0.0074859444241084
  -totals
    As   1.3701657539682e-08
    C   0.0077588154897606
    Ca   0.00034386179936509
    Cl   0.00013419124633204
    Mg   0.00025128694155613
    Na   0.0067503432939297
    S   0.0002350666438761
  -activities
    As   -14.272203359457
    C(-4)   -143.96524497209
    C(4)   -4.8104492679554
    Ca   -3.6693806071984
    Cl   -3.9150329725847
    Mg   -3.7997208568907
    Na   -2.2142554408112
    S(-2)   -142.70997677959
    S(6)   -3.8263411538647
  -gammas
  -Isotopes
SOLUTION_RAW       9 Solution after simulation 4.
  -temp              25
  -pH                6.7303372896313
  -pe                13.877868064682
  -mu                0.14432889448637
  -ah2o              0.99518880963942
  -total_h           111.04375212904
  -total_o           55.589670564675
  -cb                0.025822970300356
  -mass_water        1.000089301585
  -total_alkalinity  0.02146338901565
  -totals
    As   1.3400552331049e-09
    C   0.027701681853304
    Ca   0.0026561358201393
    Cl   0.10640837731734
    Mg   0.0018636134952784
    Na   0.1452690654433
    S   0.00030691305036816
  -activities
    As   -13.849357006816
    C(-4)   -142.65968336146
    C(4)   -5.4106494994194
    Ca   -3.0691803757344
    Cl   -1.1055879458445
    Mg   -3.1995206254268
    Na   -0.95908556961472
    S(-2)   -142.05998468432
    S(6)   -4.1223827185005
  -gammas
  -Isotopes
SOLUTION_RAW       10 Solution after simulation 4.
  -temp              25
  -pH                7.7215981483735
  -pe                12.884299572235
  -mu                0.035454893494792
  -ah2o              0.99881279837919
  -total_h           111.0250239763
  -total_o           55.549753748252
  -cb                0.0066424636476853
  -mass_water        0.99998876594589
  -total_alkalinity  0.014003400982974
  -totals
    As   2.0814014103567e-08
    C   0.014408413976207
    Ca   0.00025367456971749
    Cl   0.017273498292393
    Mg   0.00018231186205786
    Na   0.037540718110676
    S   0.00024665361858041
  -activities
    As   -14.268683423048
    C(-4)   -143.76341288749
    C(4)   -4.5455825519238
    Ca   -3.9342473232301
    Cl   -1.8409237207713
    Mg   -4.0645875729224
    Na   -1.5025400676176
    S(-2)   -142.86711559223
    S(6)   -3.9503993701773
  -gammas
  -Isotopes
SOLUTION_RAW       11 Solution after simulation 4.
  -temp              25
  -pH                8.4496076942247
  -pe                12.155812620194
  -mu                0.015003605565147
  -ah2o              0.99950861368492
  -total_h           111.01996833584
  -total_o           55.536076409449
  -cb                0.0015169811889023
  -mass_water        0.999981672658
  -total_alkalinity  0.010005389855135
  -totals
    As   3.5705172757786e-07
    C   0.0098510300127012
    Ca   5.765638552021e-05
    Cl   0.0034078279954861
    Mg   4.0535236339815e-05
    Na   0.015208732301301
    S   0.00023727972688505
  -activities
    As   -14.369938151148
    C(-4)   -144.62386444089
    C(4)   -3.9529269231076
    Ca   -4.5269029520462
    Cl   -2.5219762935597
    Mg   -4.6572432017386
    Na   -1.873529859722
    S(-2)   -143.4979535724
    S(6)   -3.8558372300038
  -gammas
  -Isotopes
SOLUTION_RAW       12 Solution after simulation 4.
  -temp              25
  -pH                8.6485393391084
  -pe                11.95677678331
  -mu                0.010729308084754
  -ah2o              0.99965650558602
  -total_h           111.01871803403
  -total_o           55.53255190985
  -cb                0.00025216665004876
  -mass_water        0.99998121658062
  -total_alkalinity  0.0089180847355497
  -totals
    As   8.0038804768893e-07
    C   0.0086759834795517
    Ca   4.0297382384974e-05
    Cl   0.00079222597542956
    Mg   2.7889159830041e-05
    Na   0.010297927600861
    S   0.00023551146810766
  -activities
    As   -14.38586934302
    C(-4)   -144.87284068093
    C(4)   -3.8046774167326
    Ca   -4.6751524584212
    Cl   -3.1481254252508
    Mg   -4.8054927081136
    Na   -2.0361067706309
    S(-2)   -143.66586013745
    S(6)   -3.8253838039039
  -gammas
  -Isotopes
SOLUTION_RAW       13 Solution after simulation 4.
  -temp              25
  -pH                8.4147897007292
  -pe                12.1904897196
  -mu                0.0093516074608771
  -ah2o              0.99969963810978
  -total_h           111.01839172418
  -total_o           55.531117528205
  -cb                -7.5439143202325e-05
  -mass_water        0.9999817171405
  -total_alkalinity  0.008291089098883
  -totals
    As   2.9334728035618e-07
    C   0.0081985927473819
    Ca   6.6055470802113e-05
    Cl   0.00025404953163196
    Mg   4.6855053751748e-05
    Na   0.0087144671322385
    S   0.0002351476733766
  -activities
    As   -14.347824372183
    C(-4)   -144.65634558493
    C(4)   -4.055921712439
    Ca   -4.4239081627148
    Cl   -3.6392593820014
    Mg   -4.5542484124072
    Na   -2.1053813213973
    S(-2)   -143.42209253855
    S(6)   -3.8155886415144
  -gammas
  -Isotopes
SOLUTION_RAW       14 Solution after simulation 4.
  -temp              25
  -pH                7.6428760190143
  -pe                12.962380523116
  -mu                0.0087222162174678
  -ah2o              0.9997364657195
  -total_h           111.01833472197
  -total_o           55.529738570094
  -cb                -0.00013214625618671
  -mass_water        0.99998676597423
  -total_alkalinity  0.0074294831499733
  -totals
    As   1.1235890788296e-08
    C   0.0077393273983582
    Ca   0.00038723621269056
    Cl   0.00014947249697813
    Mg   0.00028320025811565
    Na   0.0065761017022022
    S   0.00023507700857952
  -activities
    As   -14.266522816189
    C(-4)   -143.91933549433
    C(4)   -4.862874510744
    Ca   -3.6169553644098
    Cl   -3.8682575878293
    Mg   -3.7472956141022
    Na   -2.2256436595696
    S(-2)   -142.6635765601
    S(6)   -3.8291060599484
  -gammas
  -Isotopes
SOLUTION_RAW       15 Solution after simulation 4.
  -temp              25
  -pH                7.5927661018258
  -pe                13.012488725429
  -mu                0.008689149771021
  -ah2o              0.99974095629011
  -total_h           111.01832630165
  -total_o           55.529593587888
  -cb                -0.00014063052817237
  -mass_water        0.99998743640495
  -total_alkalinity  0.0073413150022844
  -totals
    As   9.1545578765038e-09
    C   0.0076910036289645
    Ca   0.00043836658077691
    Cl   0.00013662632006674
    Mg   0.0003208360407905
    Na   0.0062890513067821
    S   0.0002350683005901
  -activities
    As   -14.262086588113
    C(-4)   -143.87430386806
    C(4)   -4.9180706111034
    Ca   -3.5617592640504
    Cl   -3.9072116778985
    Mg   -3.6920995137428
    Na   -2.2449261553402
    S(-2)   -142.61616397415
    S(6)   -3.8318093355088
  -gammas
  -Isotopes
SOLUTION_RAW       16 Solution after simulation 4.
  -temp              25
  -pH                7.5790977363003
  -pe                13.026156685881
  -mu                0.0086835360347301
  -ah2o              0.99974215824872
  -total_h           111.01832455001
  -total_o           55.529553987126
  -cb                -0.00014239185791113
  -mass_water        0.99998763050534
  -total_alkalinity  0.0073166764205435
  -totals
    As   8.6581480447945e-09
    C   0.0076778037796919
    Ca   0.00045355424448984
    Cl   0.00013496282474367
    Mg   0.00033201496343939
    Na   0.0062082519649332
    S   0.00023506716763378
  -activities
    As   -14.260971951282
    C(-4)   -143.86208642922
    C(4)   -4.9331915517313
    Ca   -3.5466383234225
    Cl   -3.9125195436965
    Mg   -3.6769785731149
    Na   -2.2505215394208
    S(-2)   -142.60332874445
    S(6)   -3.8326435941556
  -gammas
  -Isotopes
SOLUTION_RAW       17 Solution after simulation 4.
  -temp              25
  -pH                7.4791814075465
  -pe                13.126071165535
  -mu                0.0086900841407475
  -ah2o              0.99975069689337
  -total_h           111.01832917206
  -total_o           55.529290701174
  -cb                -0.00013775791891655
  -mass_water        0.99998921850223
  -total_alkalinity  0.0071365315869487
  -totals
    As   5.8086933658561e-09
    C   0.0075900471952647
    Ca   0.00058299221011103
    Cl   0.00013389243278804
    Mg   0.0004272785529475
    Na   0.0055822632667626
    S   0.00023506644168307
  -activities
    As   -14.251305443073
    C(-4)   -143.77320025979
    C(4)   -5.0441420941039
    Ca   -3.4356877810499
    Cl   -3.9159928587582
    Mg   -3.5660280307423
    Na   -2.29663197133
    S(-2)   -142.51091287649
    S(6)   -3.8401444860912
  -gammas
  -Isotopes
SOLUTION_RAW       18 Solution after simulation 4.
  -temp              25
  -pH                6.7939258290161
  -pe                13.813967871629
  -mu                0.12928049588985
  -ah2o              0.99568621261483
  -total_h           111.04137321942
  -total_o           55.585104046827
  -cb                0.02337772277832
  -mass_water        1.0000733387273
  -total_alkalinity  0.020859561879057
  -totals
    As   1.4741088223075e-09
    C   0.026181000688735
    Ca   0.0022590256867445
    Cl   0.093661759707663
    Mg   0.0015905912101698
    Na   0.13079640342914
    S   0.00029829569190905
  -activities
    As   -13.899926534914
    C(-4)   -142.72768719072
    C(4)   -5.3533184522437
    Ca   -3.1265114229101
    Cl   -1.1561146964446
    Mg   -3.2568516726024
    Na   -1.0010893285229
    S(-2)   -142.10983221072
    S(6)   -4.1102669004704
  -gammas
  -Isotopes
SOLUTION_RAW       19 Solution after simulation 4.
  -temp              25
  -pH                7.767940787341
  -pe                12.837905150767
  -mu                0.033317599963466
  -ah2o              0.99888536535172
  -total_h           111.02438936799
  -total_o           55.548033138486
  -cb                0.0060012278005145
  -mass_water        0.99998767286941
  -total_alkalinity  0.01349712159517
  -totals
    As   2.4640964753186e-08
    C   0.013835051514671
    Ca   0.00023227436718652
    Cl   0.015971120930519
    Mg   0.00016694961985263
    Na   0.035162593197709
    S   0.00024577310230932
  -activities
    As   -14.277360771397
    C(-4)   -143.82376319709
    C(4)   -4.5135671956154
    Ca   -3.9662626795384
    Cl   -1.8730053405463
    Mg   -4.0966029292308
    Na   -1.5291793426452
    S(-2)   -142.90547842399
    S(6)   -3.9427076287748
  -gammas
  -Isotopes
SOLUTION_RAW       20 Solution after simulation 4.
  -temp              25
  -pH                8.4299776845782
  -pe                12.175440373029
  -mu                0.014952895762246
  -ah2o              0.9995100606118
  -total_h           111.01992136668
  -total_o           55.535895497647
  -cb                0.0014702776693066
  -mass_water        0.99998172313191
  -total_alkalinity  0.0099315835691869
  -totals
    As   3.2871431892611e-07
    C   0.0097907454220279
    Ca   6.0304205870096e-05
    Cl   0.0034569954554069
    Mg   4.2477203038191e-05
    Na   0.015128248449181
    S   0.00023731292938917
  -activities
    As   -14.366699783907
    C(-4)   -144.60653300503
    C(4)   -3.9748716755729
    Ca   -4.5049581995809
    Cl   -2.5156748343609
    Mg   -4.6352984492733
    Na   -1.8757064551761
    S(-2)   -143.4780137858
    S(6)   -3.8555429946815
  -gammas
  -Isotopes
SOLUTION_RAW       21 Solution after simulation 4.
  -temp              25
  -pH                8.6059378554553
  -pe                11.999377504353
  -mu                0.010722059574755
  -ah2o              0.99965583520028
  -total_h           111.01872589777
  -total_o           55.532488232883
  -cb                0.00026067093308588
  -mass_water        0.99998129333161
  -total_alkalinity  0.0088676212644688
  -totals
    As   6.6875867774904e-07
    C   0.0086549215171208
    Ca   4.3874928215776e-05
    Cl   0.0008457315897843
    Mg   3.0517504556506e-05
    Na   0.010297002918854
    S   0.00023554761919088
  -activities
    As   -14.379203345079
    C(-4)   -144.83024004243
    C(4)   -3.847289909904
    Ca   -4.6325399652498
    Cl   -3.119727858793
    Mg   -4.7628802149421
    Na   -2.0360145740785
    S(-2)   -143.62335561894
    S(6)   -3.8254928239211
  -gammas
  -Isotopes
SOLUTION_RAW       22 Solution after simulation 4.
  -temp              25
  -pH                8.3495426468553
  -pe                12.255735438087
  -mu                0.0093158029839479
  -ah2o              0.99970053492345
  -total_h           111.01839911207
  -total_o           55.531047496375
  -cb                -6.7755041920837e-05
  -mass_water        0.99998190367122
  -total_alkalinity  0.0082369832630251
  -totals
    As   2.2205736633515e-07
    C   0.0081753410428309
    Ca   7.5923428929385e-05
    Cl   0.00027082150258768
    Mg   5.4112712816501e-05
    Na   0.0086505175078393
    S   0.00023515900513636
  -activities
    As   -14.339658861472
    C(-4)   -144.59176456566
    C(4)   -4.1218447657863
    Ca   -4.3579851093675
    Cl   -3.6114187981344
    Mg   -4.4883253590599
    Na   -2.1084063759175
    S(-2)   -143.35710505292
    S(6)   -3.8158579572476
  -gammas
  -Isotopes
SOLUTION_RAW       23 Solution after simulation 4.
  -temp              25
  -pH                7.6543295634466
  -pe                12.950927469559
  -mu                0.0087350877817428
  -ah2o              0.99973532799187
  -total_h           111.01833754628
  -total_o           55.529773092053
  -cb                -0.00012929191659387
  -mass_water        0.99998662168661
  -total_alkalinity  0.0074496438757324
  -totals
    As   1.1776987905929e-08
    C   0.0077508329135371
    Ca   0.0003764813405753
    Cl   0.00015585170965767
    Mg   0.00027528319531023
    Na   0.0066428489751094
    S   0.00023508130054823
  -activities
    As   -14.267583969374
    C(-4)   -143.92965843114
    C(4)   -4.8502879080877
    Ca   -3.6295419670662
    Cl   -3.850135661758
    Mg   -3.7598822167585
    Na   -2.2212919860926
    S(-2)   -142.67450894713
    S(6)   -3.8285829405993
  -gammas
  -Isotopes
SOLUTION_RAW       24 Solution after simulation 4.
  -temp              25
  -pH                7.5935418333464
  -pe                13.011712896845
  -mu                0.0086853099557143
  -ah2o              0.99974103674197
  -total_h           111.0183245731
  -total_o           55.529590516936
  -cb                -0.00014236904484431
  -mass_water        0.99998742420277
  -total_alkalinity  0.0073410052569066
  -totals
    As   9.1774590920125e-09
    C   0.0076899797997771
    Ca   0.00043757614845499
    Cl   0.00013506119198728
    Mg   0.00032025528610592
    Na   0.0062881781767595
    S   0.00023506723218634
  -activities
    As   -14.262409008451
    C(-4)   -143.87508865921
    C(4)   -4.9173048878246
    Ca   -3.5625249873292
    Cl   -3.9122069636099
    Mg   -3.6928652370215
    Na   -2.2449786325174
    S(-2)   -142.6168614938
    S(6)   -3.8317320891282
  -gammas
  -Isotopes
SOLUTION_RAW       25 Solution after simulation 4.
  -temp              25
  -pH                7.5422337759727
  -pe                13.063019898204
  -mu                0.0086815774413826
  -ah2o              0.99974515116581
  -total_h           111.0183254732
  -total_o           55.52945968007
  -cb                -0.00014146752366695
  -mass_water        0.99998818311161
  -total_alkalinity  0.0072528855646475
  -totals
    As   7.4629038171606e-09
    C   0.0076463701440308
    Ca   0.00049724857720743
    Cl   0.00013407432654384
    Mg   0.0003641733819381
    Na   0.0059927890405577
    S   0.00023506656421029
  -activities
    As   -14.25756253229
    C(-4)   -143.82905645388
    C(4)   -4.9738923918764
    Ca   -3.5059374832774
    Cl   -3.9153839809363
    Mg   -3.6362777329698
    Na   -2.2658350656106
    S(-2)   -142.56897321203
    S(6)   -3.8351537867323
  -gammas
  -Isotopes
SOLUTION_RAW       26 Solution after simulation 4.
  -temp              25
  -pH                7.4647328075211
  -pe                13.140519521822
  -mu                0.0086934708857162
  -ah2o              0.99975208808465
  -total_h           111.01832991301
  -total_o           55.52924909449
  -cb                -0.00013701532216499
  -mass_water        0.99998947208941
  -total_alkalinity  0.0071080527782079
  -totals
    As   5.4864556036521e-09
    C   0.0075761789586682
    Ca   0.00060486305852445
    Cl   0.00013377509049027
    Mg   0.00044337499955967
    Na   0.0054784746410278
    S   0.00023506636210365
  -activities
    As   -14.249919518569
    C(-4)   -143.76054812293
    C(4)   -5.0603869566788
    Ca   -3.419442918475
    Cl   -3.9163812443918
    Mg   -3.5497831681674
    Na   -2.304780392759
    S(-2)   -142.49773995599
    S(6)   -3.8414192869164
  -gammas
  -Isotopes
SOLUTION_RAW       27 Solution after simulation 4.
  -temp              25
  -pH                6.881206744922
  -pe                13.726329557458
  -mu                0.11204057947146
  -ah2o              0.99625605951672
  -total_h           111.03866073482
  -total_o           55.579867793723
  -cb                0.020589071806805
  -mass_water        1.0000553237313
  -total_alkalinity  0.020151894957134
  -totals
    As   1.7240209919859e-09
    C   0.024437257933123
    Ca   0.0018081355683015
    Cl   0.079064645438541
    Mg   0.0012784096691552
    Na   0.11420937807194
    S   0.00028842731017803
  -activities
    As   -13.961032645146
    C(-4)   -142.82023045011
    C(4)   -5.2734136200437
    Ca   -3.2064162551101
    Cl   -1.2234821505032
    Mg   -3.3367565048025
    Na   -1.0553088677041
    S(-2)   -142.17869820865
    S(6)   -4.0937172395164
  -gammas
  -Isotopes
SOLUTION_RAW       28 Solution after simulation 4.
  -temp              25
  -pH                7.7972656890824
  -pe                12.808553000375
  -mu                0.032249577334415
  -ah2o              0.99892165505204
  -total_h           111.02399626352
  -total_o           55.546962228119
  -cb                0.0056051350005328
  -mass_water        0.99998704134776
  -total_alkalinity  0.013179018431807
  -totals
    As   2.7492814416456e-08
    C   0.013478120037698
    Ca   0.00022027209652781
    Cl   0.01542336145812
    Mg   0.00015831683190987
    Na   0.033941170031783
    S   0.00024540275269176
  -activities
    As   -14.282591293185
    C(-4)   -143.86248884497
    C(4)   -4.4938136960689
    Ca   -3.986016179085
    Cl   -1.8871481383036
    Mg   -4.1163564287773
    Na   -1.5436022898134
    S(-2)   -142.93045287899
    S(6)   -3.9385120577712
  -gammas
  -Isotopes
SOLUTION_RAW       29 Solution after simulation 4.
  -temp              25
  -pH                8.4280604543918
  -pe                12.17736389028
  -mu                0.015239029011289
  -ah2o              0.99950034119344
  -total_h           111.01996232964
  -total_o           55.536022592745
  -cb                0.0015122880065619
  -mass_water        0.99998172475826
  -total_alkalinity  0.0099743535201308
  -totals
    As   3.2680629359737e-07
    C   0.0098330665823855
    Ca   6.0565367895239e-05
    Cl   0.003680403649002
    Mg   4.2662330846609e-05
    Na   0.015435844462543
    S   0.00023746393901925
  -activities
    As   -14.36711504871
    C(-4)   -144.60324776621
    C(4)   -3.9753832690902
    Ca   -4.5044466060636
    Cl   -2.4889292863255
    Mg   -4.6347868557559
    Na   -1.8673847763702
    S(-2)   -143.47781679169
    S(6)   -3.8572298234153
  -gammas
  -Isotopes
SOLUTION_RAW       30 Solution after simulation 4.
  -temp              25
  -pH                8.6520288980873
  -pe                11.95329544317
  -mu                0.011069200517962
  -ah2o              0.99964514952564
  -total_h           111.01879666973
  -total_o           55.532810899031
  -cb                0.00033176651918114
  -mass_water        0.99998120767903
  -total_alkalinity  0.0090111491450431
  -totals
    As   8.1427898425074e-07
    C   0.0087622596867976
    Ca   3.9933629394726e-05
    Cl   0.00099792600562058
    Mg   2.7616272624771e-05
    Na   0.010677857133058
    S   0.00023565049413372
  -activities
    As   -14.387824667337
    C(-4)   -144.87292503345
    C(4)   -3.7977316265495
    Ca   -4.6820982486043
    Cl   -3.0485320561747
    Mg   -4.8124384982967
    Na   -2.0210172853533
    S(-2)   -143.6719627485
    S(6)   -3.8279507108047
  -gammas
  -Isotopes
SOLUTION_RAW       31 Solution after simulation 4.
  -temp              25
  -pH                8.5478328871006
  -pe                12.057455070429
  -mu                0.0096576705708507
  -ah2o              0.9996907010386
  -total_h           111.01843263222
  -total_o           55.531457394058
  -cb                -3.4795349916792e-05
  -mass_water        0.99998140554941
  -total_alkalinity  0.00847622372583
  -totals
    As   5.1839941326126e-07
    C   0.0083115695204462
    Ca   4.9977586867111e-05
    Cl   0.00033550777270923
    Mg   3.5025404124197e-05
    Na   0.0090778540157485
    S   0.00023520272484772
  -activities
    As   -14.366365307235
    C(-4)   -144.78597914995
    C(4)   -3.9194125114336
    Ca   -4.5604173637202
    Cl   -3.5191169815606
    Mg   -4.6907576134125
    Na   -2.0885147581911
    S(-2)   -143.55682389301
    S(6)   -3.8172243823026
  -gammas
  -Isotopes
SOLUTION_RAW       32 Solution after simulation 4.
  -temp              25
  -pH                7.9834333214225
  -pe                12.621829872604