#PHAST restart file
#Prefix: ex4restart
#Date: Wed Oct 25 08:33:43 2006
#Current model time: 10000
#nx, ny, nz: 16, 9, 5
SOLUTION_RAW       -2 
  -temp              25
  -pH                7
  -pe                4
  -mu                1e-07
  -ah2o              1
  -total_h           111.0192242578
  -total_o           55.533977608226
  -cb                0.00076361241379824
  -mass_water        1
  -total_alkalinity  0
  -totals
    As   6.970406817342e-07
    C   0.0091512260225779
    Ca   8.1147260979266e-05
    Cl   0.0017537724258483
    Mg   5.7895955775213e-05
    Na   0.012070128987659
    S   0.00023616148369512
  -activities
    As   -8.1567418742161
    C(-4)   -4.038520718046
    C(4)   -4.038520718046
    Ca   -6.0907261346383
    Cl   -4.7560267625153
    Mg   -6.2373517721249
    Na   -3.9182880887818
    S(-2)   -5.6267909313739
    S(6)   -5.6267909313739
  -gammas
  -Isotopes
SOLUTION_RAW       0 Solution after simulation 4.
  -temp              25
  -pH                6.9779199010817
  -pe                13.629275172786
  -mu                0.094124559912838
  -ah2o              0.99683924135071
  -total_h           111.03786323052
  -total_o           55.579355603882
  -cb                0.019721113763204
  -mass_water        1.0000434836597
  -total_alkalinity  0.020678570301648
  -totals
    As   2.0901763995591e-09
    C   0.024271868508787
    Ca   0.0013272598697992
    Cl   0.061711407754252
    Mg   0.00094232231935083
    Na   0.098125321043868
    S   0.00027669575644372
  -activities
    As   -14.021999631474
    C(-4)   -142.89505874875
    C(4)   -5.1567829827817
    Ca   -3.3230468923721
    Cl   -1.3237676348299
    Mg   -3.4533871420645
    Na   -1.11572470267
    S(-2)   -142.25514085396
    S(6)   -4.0751599333264
  -gammas
  -Isotopes
SOLUTION_RAW       1 Solution after simulation 4.
  -temp              25
  -pH                8.0276555356328
  -pe                12.578008819962
  -mu                0.025043611319766
  -ah2o              0.99916472440976
  -total_h           111.02290654287
  -total_o           55.544243894485
  -cb                0.0044888636530102
  -mass_water        0.99998418716295
  -total_alkalinity  0.012482141484549
  -totals
    As   6.6451087871094e-08
    C   0.012573348295183
    Ca   0.00013011672232992
    Cl   0.0095348437911383
    Mg   9.311471403452e-05
    Na   0.026542296316518
    S   0.00024142190473041
  -activities
    As   -14.319114054722
    C(-4)   -144.11067124444
    C(4)   -4.2821340694797
    Ca   -4.1976958056741
    Cl   -2.0885008466885
    Mg   -4.3280360553665
    Na   -1.6437740380618
    S(-2)   -143.1316073975
    S(6)   -3.9100887086508
  -gammas
  -Isotopes
SOLUTION_RAW       2 Solution after simulation 4.
  -temp              25
  -pH                8.6222145185657
  -pe                11.983156231078
  -mu                0.012849085675186
  -ah2o              0.99958467234342
  -total_h           111.01941456092
  -total_o           55.534693723302
  -cb                0.00095478076633184
  -mass_water        0.99998126899261
  -total_alkalinity  0.0096441378841245
  -totals
    As   7.2625075706001e-07
    C   0.0093899620057919
    Ca   4.1151604420677e-05
    Cl   0.0018442912189632
    Mg   2.8477768630312e-05
    Na   0.012777122836798
    S   0.00023622273136153
  -activities
    As   -14.390547366081
    C(-4)   -144.81632105441
    C(4)   -3.800467259039
    Ca   -4.6793626161148
    Cl   -2.7850480068408
    Mg   -4.8097028658072
    Na   -1.9461820836605
    S(-2)   -143.65569114039
    S(6)   -3.8412322837958
  -gammas
  -Isotopes
SOLUTION_RAW       3 Solution after simulation 4.
  -temp              25
  -pH                8.7316385506604
  -pe                11.873668452027
  -mu                0.010329338897303
  -ah2o              0.99967206262246
  -total_h           111.01856774584
  -total_o           55.532265165155
  -cb                9.9338800450208e-05
  -mass_water        0.99998108314
  -total_alkalinity  0.0088784517464209
  -totals
    As   1.1321887863284e-06
    C   0.0085800159381145
    Ca   3.4468301942615e-05
    Cl   0.0004735876050751
    Mg   2.3613155354706e-05
    Na   0.0098069395987984
    S   0.00023529608633023
  -activities
    As   -14.397552224823
    C(-4)   -144.96221569288
    C(4)   -3.7279098919042
    Ca   -4.7519199832496
    Cl   -3.3707858192188
    Mg   -4.882260232942
    Na   -2.0568077355421
    S(-2)   -143.74545108311
    S(6)   -3.8219262705178
  -gammas
  -Isotopes
SOLUTION_RAW       4 Solution after simulation 4.
  -temp              25
  -pH                8.5352640371666
  -pe                12.070016960169
  -mu                0.0093850429153265
  -ah2o              0.99969972174107
  -total_h           111.01835721509
  -total_o           55.531199689513
  -cb                -0.00011081837516746
  -mass_water        0.99998143045887
  -total_alkalinity  0.0083805042155633
  -totals
    As   4.8954940817139e-07
    C   0.0082257254246423
    Ca   5.1444768298651e-05
    Cl   0.00019909635181775
    Mg   3.6110706309277e-05
    Na   0.0087643818387859
    S   0.00023511052318998
  -activities
    As   -14.364141958741
    C(-4)   -144.77702715967
    C(4)   -3.9356423521091
    Ca   -4.5441875230447
    Cl   -3.7451850922448
    Mg   -4.6745277727371
    Na   -2.1031928710506
    S(-2)   -143.54200603285
    S(6)   -3.8150156733074
  -gammas
  -Isotopes
SOLUTION_RAW       5 Solution after simulation 4.
  -temp              25
  -pH                7.8830855442788
  -pe                12.72217526574
  -mu                0.0087732554401905
  -ah2o              0.99972430390059
  -total_h           111.01831960173
  -total_o           55.530159111973
  -cb                -0.00014738125242982
  -mass_water        0.99998428866494
  -total_alkalinity  0.0077250011224926
  -totals
    As   3.0378292562208e-08
    C   0.0078794800912865
    Ca   0.00021799891956536
    Cl   0.00014208098160541
    Mg   0.00015866080256018
    Na   0.0074365557399881
    S   0.00023507197713919
  -activities
    As   -14.289954601435
    C(-4)   -144.14380954353
    C(4)   -4.6069112100233
    Ca   -3.8729186651306
    Cl   -3.8903943890124
    Mg   -4.0032589148229
    Na   -2.172495373384
    S(-2)   -142.89429402064
    S(6)   -3.8196009774269
  -gammas
  -Isotopes
SOLUTION_RAW       6 Solution after simulation 4.
  -temp              25
  -pH                7.8824763170013
  -pe                12.722784066101
  -mu                0.0087578513868062
  -ah2o              0.99972485525125
  -total_h           111.01831315251
  -total_o           55.530138974055
  -cb                -0.00015386859937667
  -mass_water        0.99998429118381
  -total_alkalinity  0.0077180587271281
  -totals
    As   3.0261405056038e-08
    C   0.0078727669272856
    Ca   0.00021840323695786
    Cl   0.00013625758842865
    Mg   0.00015896021961897
    Na   0.0074158871449438
    S   0.00023506804025618
  -activities
    As   -14.290337339493
    C(-4)   -144.14354876298
    C(4)   -4.6078715926175
    Ca   -3.8719582825363
    Cl   -3.9085357178985
    Mg   -4.0022985322287
    Na   -2.1736705609236
    S(-2)   -142.89357226718
    S(6)   -3.8194909234721
  -gammas
  -Isotopes
SOLUTION_RAW       7 Solution after simulation 4.
  -temp              25
  -pH                7.9844193324871
  -pe                12.620843037061
  -mu                0.0087998256478781
  -ah2o              0.99972094865543
  -total_h           111.01831029855
  -total_o           55.530286640554
  -cb                -0.00015677853011989
  -mass_water        0.99998355346476
  -total_alkalinity  0.0078193522763649
  -totals
    As   4.6484453243555e-08
    C   0.0079219670723288
    Ca   0.000172342922426
    Cl   0.00013541376644241
    Mg   0.00012506696662622
    Na   0.0076733491560686
    S   0.0002350674685162
  -activities
    As   -14.300675264763
    C(-4)   -144.24089947961
    C(4)   -4.5013253155878
    Ca   -3.978504559566
    Cl   -3.9113256296419
    Mg   -4.1088448092583
    Na   -2.1590086679958
    S(-2)   -142.99315609315
    S(6)   -3.8171224121128
  -gammas
  -Isotopes
SOLUTION_RAW       8 Solution after simulation 4.
  -temp              25
  -pH                7.5128579768473
  -pe                13.09239493578
  -mu                0.0086770436296467
  -ah2o              0.9997479093651
  -total_h           111.01832180325
  -total_o           55.529367782918
  -cb                -0.00014514745827428
  -mass_water        0.99998864623029
  -total_alkalinity  0.0071952997990958
  -totals
    As   6.6338148164369e-09
    C   0.0076157369058384
    Ca   0.00053559102174298
    Cl   0.00013395232634667
    Mg   0.00039239508508672
    Na   0.0057982720497541
    S   0.00023506648121525
  -activities
    As   -14.254862342331
    C(-4)   -143.80319008158
    C(4)   -5.0067793110706
    Ca   -3.4730505640832
    Cl   -3.9157695019811
    Mg   -3.6033908137756
    Na   -2.2801368381207
    S(-2)   -142.54176383467
    S(6)   -3.8373205360421
  -gammas
  -Isotopes
SOLUTION_RAW       9 Solution after simulation 4.
  -temp              25
  -pH                7.0088131660602
  -pe                13.598284433701
  -mu                0.089628895479738
  -ah2o              0.99699053773894
  -total_h           111.03691279249
  -total_o           55.577329675033
  -cb                0.018751720660487
  -mass_water        1.000038386315
  -total_alkalinity  0.020295849373089
  -totals
    As   2.2427367955856e-09
    C   0.02359688187221
    Ca   0.0012358160501232
    Cl   0.058174003392627
    Mg   0.00087840930873448
    Na   0.093541733553118
    S   0.0002743043009463
  -activities
    As   -14.038881873321
    C(-4)   -142.93117671872
    C(4)   -5.1316964844361
    Ca   -3.3481333907177
    Cl   -1.3473914819948
    Mg   -3.47847364041
    Na   -1.1348835013221
    S(-2)   -142.27942553508
    S(6)   -4.069067499754
  -gammas
  -Isotopes
SOLUTION_RAW       10 Solution after simulation 4.
  -temp              25
  -pH                8.0513738081161
  -pe                12.554269636269
  -mu                0.024196099638564
  -ah2o              0.99919362357885
  -total_h           111.02264610515
  -total_o           55.543509640806
  -cb                0.0042258201959211
  -mass_water        0.9999839346029
  -total_alkalinity  0.01225546681397
  -totals
    As   7.2798604468789e-08
    C   0.012328641006233
    Ca   0.00012450486303827
    Cl   0.0090436707158403
    Mg   8.9064064841699e-05
    Na   0.025580072363206
    S   0.000241089847315
  -activities
    As   -14.322291875598
    C(-4)   -144.14158104891
    C(4)   -4.2657369383475
    Ca   -4.2140929368063
    Cl   -2.1104949031933
    Mg   -4.3444331864987
    Na   -1.6589155901153
    S(-2)   -143.15130776306
    S(6)   -3.9061878525361
  -gammas
  -Isotopes
SOLUTION_RAW       11 Solution after simulation 4.
  -temp              25
  -pH                8.6088912045892
  -pe                11.996475779459
  -mu                0.012715667773123
  -ah2o              0.9995888389585
  -total_h           111.01936895856
  -total_o           55.534520078952
  -cb                0.00090907833670002
  -mass_water        0.99998129379338
  -total_alkalinity  0.0095741995313759
  -totals
    As   6.8627154063716e-07
    C   0.0093321325023783
    Ca   4.236125981317e-05
    Cl   0.0018084298378454
    Mg   2.9367686225255e-05
    Na   0.012621333062793
    S   0.00023619848870402
  -activities
    As   -14.387785214584
    C(-4)   -144.80506174335
    C(4)   -3.8158783397
    Ca   -4.6639515354538
    Cl   -2.7933424752291
    Mg   -4.7942917851462
    Na   -1.9512409436527
    S(-2)   -143.64143839916
    S(6)   -3.8403244150042
  -gammas
  -Isotopes
SOLUTION_RAW       12 Solution after simulation 4.
  -temp              25
  -pH                8.6782141064824
  -pe                11.927088965847
  -mu                0.010195955200049
  -ah2o              0.99967512141076
  -total_h           111.01855501161
  -total_o           55.532099049003
  -cb                8.7244316746786e-05
  -mass_water        0.99998116756582
  -total_alkalinity  0.0087806326828901
  -totals
    As   9.0366684142188e-07
    C   0.0085249466794176
    Ca   3.8248816391637e-05
    Cl   0.00046776767681491
    Mg   2.6393304383122e-05
    Na   0.0096778484069312
    S   0.00023529215259376
  -activities
    As   -14.38814657999
    C(-4)   -144.90964525913
    C(4)   -3.782212228715
    Ca   -4.6976176464389
    Cl   -3.3758889600877
    Mg   -4.8279578961312
    Na   -2.0621328082407
    S(-2)   -143.69112815221
    S(6)   -3.8210484711183
  -gammas
  -Isotopes
SOLUTION_RAW       13 Solution after simulation 4.
  -temp              25
  -pH                8.3571129701506
  -pe                12.248161732281
  -mu                0.0091800327669185
  -ah2o              0.99970516660579
  -total_h           111.01835589226
  -total_o           55.530924968768
  -cb                -0.0001113834942355
  -mass_water        0.99998187790856
  -total_alkalinity  0.0081988760982744
  -totals
    As   2.2889150113075e-07
    C   0.0081344998668122
    Ca   7.4840405394759e-05
    Cl   0.00019449953008814
    Mg   5.3321374243392e-05
    Na   0.0084961122968808
    S   0.00023510741526446
  -activities
    As   -14.340332345391
    C(-4)   -144.60122468765
    C(4)   -4.1161852356287
    Ca   -4.3636446395251
    Cl   -3.7548938734045
    Mg   -4.4939848892175
    Na   -2.1159579752965
    S(-2)   -143.3634374036
    S(6)   -3.8146389567278
  -gammas
  -Isotopes
SOLUTION_RAW       14 Solution after simulation 4.
  -temp              25
  -pH                7.4871573661209
  -pe                13.118095835309
  -mu                0.0087066778156792
  -ah2o              0.99974929660026
  -total_h           111.01833659482
  -total_o           55.529335677241
  -cb                -0.00013028697083435
  -mass_water        0.99998908836722
  -total_alkalinity  0.0071590496562082
  -totals
    As   6.0075424299185e-09
    C   0.00760503943354
    Ca   0.00057098905502658
    Cl   0.00014166048570752
    Mg   0.00041843860185607
    Na   0.0056617172495998
    S   0.00023507169237062
  -activities
    As   -14.251301898375
    C(-4)   -143.77981163184
    C(4)   -5.0348063637082
    Ca   -3.4450235114457
    Cl   -3.8915368203335
    Mg   -3.575363761138
    Na   -2.2905350552698
    S(-2)   -142.51832509138
    S(6)   -3.8395878977126
  -gammas
  -Isotopes
SOLUTION_RAW       15 Solution after simulation 4.
  -temp              25
  -pH                7.4313761604972
  -pe                13.173875778099
  -mu                0.0087091258915281
  -ah2o              0.99975529216
  -total_h           111.01833415733
  -total_o           55.529156392661
  -cb                -0.00013275467216642
  -mass_water        0.99999008446524
  -total_alkalinity  0.0070419962315455
  -totals
    As   4.8203201261863e-09
    C   0.007545280239867
    Ca   0.00065878016723049
    Cl   0.00013518109070281
    Mg   0.00048305459629427
    Na   0.0052308925675964
    S   0.00023506731212198
  -activities
    As   -14.246053220161
    C(-4)   -143.73142671368
    C(4)   -5.0979777849894
    Ca   -3.3818520901644
    Cl   -3.9118754458304
    Mg   -3.5121923398568
    Na   -2.3248754242907
    S(-2)   -142.46757124821
    S(6)   -3.8446047766202
  -gammas
  -Isotopes
SOLUTION_RAW       16 Solution after simulation 4.
  -temp              25
  -pH                7.4146490729346
  -pe                13.190602555959
  -mu                0.0087140003264791
  -ah2o              0.99975716647095
  -total_h           111.01833390246
  -total_o           55.529101073524
  -cb                -0.00013301353492679
  -mass_water        0.99999040207511
  -total_alkalinity  0.0070053763229384
  -totals
    As   4.5143144480247e-09
    C   0.007526840939964
    Ca   0.00068793512019865
    Cl   0.00013434194806873
    Mg   0.00050451246113444
    Na   0.0050919475760302
    S   0.00023506674415078
  -activities
    As   -14.24454014678
    C(-4)   -143.71706176705
    C(4)   -5.1170669769519
    Ca   -3.3627628982019
    Cl   -3.914590662767
    Mg   -3.4931031478942
    Na   -2.3365660823599
    S(-2)   -142.45253092391
    S(6)   -3.846290673251
  -gammas
  -Isotopes
SOLUTION_RAW       17 Solution after simulation 4.
  -temp              25
  -pH                7.3252955372929
  -pe                13.27995540446
  -mu                0.0087850657048752
  -ah2o              0.99976761665358
  -total_h           111.01834580969
  -total_o           55.52881846527
  -cb                -0.00012107863577044
  -mass_water        0.99999226732205
  -total_alkalinity  0.0068050493573087
  -totals
    As   3.2051958125436e-09
    C   0.0074326444223223
    Ca   0.00086927785024938
    Cl   0.00013380243409116
    Mg   0.00063796346170393
    Na   0.0042734264971216
    S   0.00023506638010146
  -activities
    As   -14.235199023132
    C(-4)   -143.64110295404
    C(4)   -5.219804627589
    Ca   -3.2600252475648
    Cl   -3.9164957733199
    Mg   -3.3903654972572
    Na   -2.4127597909504
    S(-2)   -142.37385243637
    S(6)   -3.8569499338991
  -gammas
  -Isotopes
SOLUTION_RAW       18 Solution after simulation 4.
  -temp              25
  -pH                7.0789361743577
  -pe                13.527966706197
  -mu                0.080647447885197
  -ah2o              0.99729231046766
  -total_h           111.03503366024
  -total_o           55.573306864665
  -cb                0.016834583336442
  -mass_water        1.0000284191657
  -total_alkalinity  0.019528081214991
  -totals
    As   2.6623041843112e-09
    C   0.022256567299691
    Ca   0.001049966048284
    Cl   0.05110710051314
    Mg   0.00074802309692957
    Na   0.084412842883118
    S   0.00026952672333473
  -activities
    As   -14.073922114495
    C(-4)   -143.01205247859
    C(4)   -5.0734896801375
    Ca   -3.4063401950163
    Cl   -1.39937081814
    Mg   -3.5366804447087
    Na   -1.1760143847096
    S(-2)   -142.33515416031
    S(6)   -4.0557051321499
  -gammas
  -Isotopes
SOLUTION_RAW       19 Solution after simulation 4.
  -temp              25
  -pH                8.0866390920582
  -pe                12.518975088305
  -mu                0.023031359399124
  -ah2o              0.99923336561941
  -total_h           111.02226125001
  -total_o           55.542421517505
  -cb                0.0038375380344254
  -mass_water        0.99998358649184
  -total_alkalinity  0.011918030811326
  -totals
    As   8.3458904000807e-08
    C   0.01196597960986
    Ca   0.0001167776748363
    Cl   0.0084072888880686
    Mg   8.3482387648443e-05
    Na   0.024243740291293
    S   0.0002406596117692
  -activities
    As   -14.326909886919
    C(-4)   -144.18795279868
    C(4)   -4.2417604130325
    Ca   -4.2380694621213
    Cl   -2.1408065593214
    Mg   -4.3684097118137
    Na   -1.6809483473314
    S(-2)   -143.1808155028
    S(6)   -3.9005953270437
  -gammas
  -Isotopes
SOLUTION_RAW       20 Solution after simulation 4.
  -temp              25
  -pH                8.5861852934926
  -pe                12.019179867405
  -mu                0.012670727265171
  -ah2o              0.99958983779793
  -total_h           111.01934331728
  -total_o           55.534390992235
  -cb                0.00088376300671792
  -mass_water        0.99998133710303
  -total_alkalinity  0.0095136837148686
  -totals
    As   6.2372007405017e-07
    C   0.0092891747284617
    Ca   4.4429724589074e-05
    Cl   0.001844290914634
    Mg   3.0886364973314e-05
    Na   0.012564174633434
    S   0.00023622272813232
  -activities
    As   -14.383896893381
    C(-4)   -144.78372905383
    C(4)   -3.8399716771299
    Ca   -4.6398581980239
    Cl   -2.7847357787712
    Mg   -4.7701984477162
    Na   -1.9530671650904
    S(-2)   -143.61844456512
    S(6)   -3.8400506470371
  -gammas
  -Isotopes
SOLUTION_RAW       21 Solution after simulation 4.
  -temp              25
  -pH                8.6338903713359
  -pe                11.971411284653
  -mu                0.010157685847189
  -ah2o              0.9996754023375
  -total_h           111.01856227363
  -total_o           55.532027270537
  -cb                9.5111557161117e-05
  -mass_water        0.99998124313908
  -total_alkalinity  0.008725486221768
  -totals
    As   7.4941518898453e-07
    C   0.0085012210111645
    Ca   4.1738160788148e-05
    Cl   0.00049714086702088
    Mg   2.8958231782643e-05
    Na   0.009647719290924
    S   0.0002353120074633
  -activities
    As   -14.381029654116
    C(-4)   -144.86527998308
    C(4)   -3.8265058119953
    Ca   -4.6533240631585
    Cl   -3.3493627340898
    Mg   -4.7836643128509
    Na   -2.0632862440078
    S(-2)   -143.64666620057
    S(6)   -3.8209218317158
  -gammas
  -Isotopes
SOLUTION_RAW       22 Solution after simulation 4.
  -temp              25
  -pH                8.2841465572763
  -pe                12.321126541553
  -mu                0.009134280687244
  -ah2o              0.99970662151796
  -total_h           111.01836149362
  -total_o           55.530843413538
  -cb                -0.00010555142935978
  -mass_water        0.99998211396808
  -total_alkalinity  0.00813890217765
  -totals
    As   1.6760428181129e-07
    C   0.0081073955830383
    Ca   8.7642240780035e-05
    Cl   0.00020336179385444
    Mg   6.2738356506127e-05
    Na   0.0084063457612907
    S   0.00023511340471827
  -activities
    As   -14.331585907786
    C(-4)   -144.52932105917
    C(4)   -4.1902254217704
    Ca   -4.2896044533834
    Cl   -3.7354450301556
    Mg   -4.4199447030758
    Na   -2.1203779545822
    S(-2)   -143.29082212063
    S(6)   -3.8150004636547
  -gammas
  -Isotopes
SOLUTION_RAW       23 Solution after simulation 4.
  -temp              25
  -pH                7.4978216335481
  -pe                13.107431880991
  -mu                0.0087100461639888
  -ah2o              0.99974813610229
  -total_h           111.01833747622
  -total_o           55.529369517624
  -cb                -0.00012939143919142
  -mass_water        0.9999889087079
  -total_alkalinity  0.0071807139441189
  -totals
    As   6.2676972640814e-09
    C   0.0076163184873078
    Ca   0.00055572637385004
    Cl   0.00014492335610253
    Mg   0.00040720427583826
    Na   0.0057405386257071
    S   0.00023507389817825
  -activities
    As   -14.252327396309
    C(-4)   -143.78914835357
    C(4)   -5.0228051590732
    Ca   -3.4570247160807
    Cl   -3.8816545330781
    Mg   -3.587364965773
    Na   -2.2845445871698
    S(-2)   -142.5281514247
    S(6)   -3.8387392603312
  -gammas
  -Isotopes
SOLUTION_RAW       24 Solution after simulation 4.
  -temp              25
  -pH                7.4294753894261
  -pe                13.175776443098
  -mu                0.0087072477950303
  -ah2o              0.99975558956449
  -total_h           111.01833282958
  -total_o           55.529146494907
  -cb                -0.00013408888186908
  -mass_water        0.99999011872981
  -total_alkalinity  0.0070367309629777
  -totals
    As   4.7817870879557e-09
    C   0.0075419807126418
    Ca   0.00066209079298396
    Cl   0.00013439937065025
    Mg   0.00048549215398089
    Na   0.0052120139068391
    S   0.00023506678361142
  -activities
    As   -14.246107328997
    C(-4)   -143.72985607816
    C(4)   -5.1002091345206
    Ca   -3.3796207406332
    Cl   -3.9143900195583
    Mg   -3.5099609903255
    Na   -2.326440249738
    S(-2)   -142.4658428666
    S(6)   -3.8447774759724
  -gammas
  -Isotopes
SOLUTION_RAW       25 Solution after simulation 4.
  -temp              25
  -pH                7.380155939836
  -pe                13.225095300685
  -mu                0.008734562700456
  -ah2o              0.99976100825488
  -total_h           111.01833737486
  -total_o           55.528993814656
  -cb                -0.00012953405573154
  -mass_water        0.99999108958817
  -total_alkalinity  0.0069303953943263
  -totals
    As   3.9497349225148e-09
    C   0.0074910900743986
    Ca   0.00075245146454179
    Cl   0.00013389614852136
    Mg   0.00055199245831681
    Na   0.0047960064771509
    S   0.00023506644300854
  -activities
    As   -14.241117660373
    C(-4)   -143.68749745193
    C(4)   -5.1564870574732
    Ca   -3.3233428176806
    Cl   -3.9160799292826
    Mg   -3.4536830673729
    Na   -2.3625897150966
    S(-2)   -142.42182670265
    S(6)   -3.850076052027
  -gammas
  -Isotopes
SOLUTION_RAW       26 Solution after simulation 4.
  -temp              25
  -pH                7.312269895021
  -pe                13.292981015715
  -mu                0.0087998686888543
  -ah2o              0.99976931920271
  -total_h           111.01834777289
  -total_o           55.52877432509
  -cb                -0.00011911097461681
  -mass_water        0.99999256180236
  -total_alkalinity  0.0067736568840606
  -totals
    As   3.0512863106299e-09
    C   0.0074179319598985
    Ca   0.00089993245814315
    Cl   0.00013374363639728
    Mg   0.00066052086285307
    Na   0.0041375186360466
    S   0.00023506634045584
  -activities
    As   -14.233828659202
    C(-4)   -143.63023604075
    C(4)   -5.2349877959099
    Ca   -3.2448420792439
    Cl   -3.9167193271957
    Mg   -3.3751823289363
    Na   -2.4268172965288
    S(-2)   -142.36262568308
    S(6)   -3.8587470753567
  -gammas
  -Isotopes
SOLUTION_RAW       27 Solution after simulation 4.
  -temp              25
  -pH                7.1761571329403
  -pe                13.430521334337
  -mu                0.07032016900895
  -ah2o              0.99763892978924
  -total_h           111.03288503968
  -total_o           55.568636183133
  -cb                0.014642293411674
  -mass_water        1.0000174708852
  -total_alkalinity  0.018603057774661
  -totals
    As   3.4557246564091e-09
    C   0.020700358469639
    Ca   0.00083777276328842
    Cl   0.043017071009286
    Mg   0.00059840426210546
    Na   0.073918186512474
    S   0.00026405745595838
  -activities
    As   -14.116182571878
    C(-4)   -143.12305344277
    C(4)   -4.9913912815896
    Ca   -3.4884385935643
    Cl   -1.4688266359208
    Mg   -3.6187788432566
    Na   -1.2292265824492
    S(-2)   -142.41354955521
    S(6)   -4.0380711995306
  -gammas
  -Isotopes
SOLUTION_RAW       28 Solution after simulation 4.
  -temp              25
  -pH                8.1076036197127
  -pe                12.497996210181
  -mu                0.022493209104399
  -ah2o              0.99925176087178
  -total_h           111.02203806169
  -total_o           55.541791433427
  -cb                0.0036129784044803
  -mass_water        0.99998339102738
  -total_alkalinity  0.011722375057912
  -totals
    As   9.0649316698555e-08
    C   0.011755945489946
    Ca   0.0001125958195482
    Cl   0.0081751634050986
    Mg   8.0456696048586e-05
    Na   0.023605507823366
    S   0.00024050266887601
  -activities
    As   -14.329685785241
    C(-4)   -144.2157222121
    C(4)   -4.2276915878401
    Ca   -4.2521382873138
    Cl   -2.1523143129631
    Mg   -4.3824785370061
    Na   -1.6919291891491
    S(-2)   -143.19891829021
    S(6)   -3.8978164048402
  -gammas
  -Isotopes
SOLUTION_RAW       29 Solution after simulation 4.
  -temp              25
  -pH                8.5895636814832
  -pe                12.015805836267
  -mu                0.012858564020096
  -ah2o              0.99958356960098
  -total_h           111.0193765012
  -total_o           55.53450498938
  -cb                0.00091754853848816
  -mass_water        0.99998132745569
  -total_alkalinity  0.0095558964627561
  -totals
    As   6.3352542210188e-07
    C   0.0093271399327363
    Ca   4.4113846471804e-05
    Cl   0.001972194391889
    Mg   3.065147421532e-05
    Na   0.012769360655138
    S   0.00023630918897855
  -activities
    As   -14.385071411839
    C(-4)   -144.78580974551
    C(4)   -3.8352689170086
    Ca   -4.6445609581452
    Cl   -2.7559443335956
    Mg   -4.7749012078375
    Na   -1.946354681906
    S(-2)   -143.62309385886
    S(6)   -3.8412976115577
  -gammas
  -Isotopes
SOLUTION_RAW       30 Solution after simulation 4.
  -temp              25
  -pH                8.6962200873993
  -pe                11.909088878512
  -mu                0.010426703908228
  -ah2o              0.99966782708571
  -total_h           111.01860786008
  -total_o           55.532309060875
  -cb                0.00014044412621055
  -mass_water        0.99998113684803
  -total_alkalinity  0.0088672136985737
  -totals
    As   9.7666054856858e-07
    C   0.0085948401886424
    Ca   3.6861552673898e-05
    Cl   0.00057762046448072
    Mg   2.5370172621682e-05
    Na   0.0099325243172845
    S   0.00023536640903107
  -activities
    As   -14.391980864469
    C(-4)   -144.92518936591
    C(4)   -3.7617077927725
    Ca   -4.7181220823813
    Cl   -3.2847371857851
    Mg   -4.8484623320737
    Na   -2.0513556739505
    S(-2)   -143.71093313773
    S(6)   -3.8228145844216
  -gammas
  -Isotopes
SOLUTION_RAW       31 Solution after simulation 4.
  -temp              25
  -pH                8.5190103691979
  -pe                12.086271774325
  -mu                0.0094348497278421
  -ah2o              0.99969782702873
  -total_h           111.01837833806
  -total_o           55.531238405869
  -cb                -8.940187472539e-05
  -mass_water        0.99998146549094
  -total_alkalinity  0.0083850303300532
  -totals
    As   4.5759004970189e-07
    C   0.0082386691600982
    Ca   5.3147303454383e-05
    Cl   0.00023692499417366
    Mg   3.7361298079901e-05
    Na   0.0088222660142748
    S   0.00023513608889612
  -activities
    As   -14.361644614062
    C(-4)   -144.75995034176
    C(4)   -3.9510654812757
    Ca   -4.5287643938781
    Cl   -3.6697426239334
    Mg   -4.6591046435705
    Na   -2.1004028403111
    S(-2)   -143.52628036963
    S(6)   -3.8155368342916
  -gammas
  -Isotopes
SOLUTION_RAW       32 Solution after simulation 4.
  -temp              25
  -pH                7.8383561264717
  -pe                12.766903592375