#PHAST restart file
#Prefix: ex4restart
#Date: Wed May 17 13:44:53 2006
#Current model time: 10000
#nx, ny, nz: 16, 9, 5
SOLUTION_RAW       -2 
  -temp              25
  -pH                7
  -pe                4
  -mu                1e-07
  -ah2o              1
  -total_h           111.0192242578
  -total_o           55.533977608215
  -cb                0.00076361241308003
  -mass_water        1
  -total_alkalinity  0
  -totals
    As   6.9704068162155e-07
    C   0.0091512260215515
    Ca   8.1147261009245e-05
    Cl   0.0017537724258479
    Mg   5.7895955797316e-05
    Na   0.012070128985738
    S   0.00023616148369352
  -activities
    As   -8.1567418742863
    C(-4)   -4.0385207180947
    C(4)   -4.0385207180947
    Ca   -6.0907261344779
    Cl   -4.7560267625154
    Mg   -6.2373517719591
    Na   -3.9182880888509
    S(-2)   -5.6267909313769
    S(6)   -5.6267909313769
  -gammas
  -Isotopes
SOLUTION_RAW       0 Solution after simulation 4.
  -temp              25
  -pH                6.9779199010807
  -pe                13.629275171071
  -mu                0.094124559912827
  -ah2o              0.99683924135076
  -total_h           111.03786323052
  -total_o           55.579355603876
  -cb                0.019721113763224
  -mass_water        1.0000434836597
  -total_alkalinity  0.02067857030162
  -totals
    As   2.0901763995527e-09
    C   0.024271868508763
    Ca   0.0013272598698036
    Cl   0.061711407754251
    Mg   0.00094232231935403
    Na   0.098125321043844
    S   0.00027669575644356
  -activities
    As   -14.021999631474
    C(-4)   -142.89505873502
    C(4)   -5.1567829827832
    Ca   -3.3230468923706
    Cl   -1.3237676348299
    Mg   -3.4533871420629
    Na   -1.1157247026701
    S(-2)   -142.25514084022
    S(6)   -4.0751599333267
  -gammas
  -Isotopes
SOLUTION_RAW       1 Solution after simulation 4.
  -temp              25
  -pH                8.0276555356357
  -pe                12.578008818409
  -mu                0.02504361131964
  -ah2o              0.99916472440982
  -total_h           111.02290654287
  -total_o           55.544243894479
  -cb                0.0044888636529481
  -mass_water        0.99998418716295
  -total_alkalinity  0.012482141484453
  -totals
    As   6.6451087871819e-08
    C   0.012573348295084
    Ca   0.00013011672232981
    Cl   0.0095348437911383
    Mg   9.3114714034448e-05
    Na   0.026542296316359
    S   0.00024142190473018
  -activities
    As   -14.319114054723
    C(-4)   -144.11067123204
    C(4)   -4.28213406948
    Ca   -4.1976958056738
    Cl   -2.0885008466883
    Mg   -4.3280360553661
    Na   -1.6437740380643
    S(-2)   -143.1316073851
    S(6)   -3.9100887086505
  -gammas
  -Isotopes
SOLUTION_RAW       2 Solution after simulation 4.
  -temp              25
  -pH                8.622214518567
  -pe                11.983156230267
  -mu                0.012849085675028
  -ah2o              0.99958467234345
  -total_h           111.01941456092
  -total_o           55.534693723298
  -cb                0.00095478076625916
  -mass_water        0.99998126899261
  -total_alkalinity  0.0096441378840023
  -totals
    As   7.2625075706257e-07
    C   0.0093899620056727
    Ca   4.1151604420896e-05
    Cl   0.0018442912189633
    Mg   2.8477768630476e-05
    Na   0.012777122836602
    S   0.00023622273136139
  -activities
    As   -14.390547366081
    C(-4)   -144.81632104794
    C(4)   -3.8004672590429
    Ca   -4.6793626161109
    Cl   -2.7850480068405
    Mg   -4.8097028658032
    Na   -1.9461820836669
    S(-2)   -143.65569113392
    S(6)   -3.8412322837948
  -gammas
  -Isotopes
SOLUTION_RAW       3 Solution after simulation 4.
  -temp              25
  -pH                8.7316385494699
  -pe                11.873668452904
  -mu                0.010329338894221
  -ah2o              0.99967206262254
  -total_h           111.01856774584
  -total_o           55.53226516515
  -cb                9.9338800116135e-05
  -mass_water        0.99998108314
  -total_alkalinity  0.0088784517440847
  -totals
    As   1.132188780647e-06
    C   0.0085800159367845
    Ca   3.4468302021868e-05
    Cl   0.00047358760507516
    Mg   2.3613155412987e-05
    Na   0.0098069395958475
    S   0.00023529608633026
  -activities
    As   -14.397552224609
    C(-4)   -144.96221568921
    C(4)   -3.7279098931162
    Ca   -4.7519199820376
    Cl   -3.3707858192126
    Mg   -4.88226023173
    Na   -2.0568077356627
    S(-2)   -143.7454510794
    S(6)   -3.8219262704969
  -gammas
  -Isotopes
SOLUTION_RAW       4 Solution after simulation 4.
  -temp              25
  -pH                8.5352640353717
  -pe                12.070016961865
  -mu                0.0093850429132584
  -ah2o              0.99969972174112
  -total_h           111.01835721509
  -total_o           55.531199689511
  -cb                -0.00011081837494361
  -mass_water        0.99998143045887
  -total_alkalinity  0.0083805042137517
  -totals
    As   4.8954940444912e-07
    C   0.0082257254238427
    Ca   5.1444768487492e-05
    Cl   0.00019909635181776
    Mg   3.611070644818e-05
    Na   0.0087643818365391
    S   0.00023511052319007
  -activities
    As   -14.364141958468
    C(-4)   -144.77702713642
    C(4)   -3.9356423539113
    Ca   -4.5441875212425
    Cl   -3.7451850922404
    Mg   -4.6745277709348
    Na   -2.1031928711539
    S(-2)   -143.5420060002
    S(6)   -3.815015673301
  -gammas
  -Isotopes
SOLUTION_RAW       5 Solution after simulation 4.
  -temp              25
  -pH                7.883085547801
  -pe                12.722175262206
  -mu                0.0087732554408984
  -ah2o              0.99972430390047
  -total_h           111.01831960173
  -total_o           55.530159111977
  -cb                -0.00014738125298911
  -mass_water        0.99998428866491
  -total_alkalinity  0.0077250011257685
  -totals
    As   3.0378293011293e-08
    C   0.0078794800926447
    Ca   0.00021799891777483
    Cl   0.00014208098160541
    Mg   0.0001586608012427
    Na   0.0074365557489211
    S   0.0002350719771392
  -activities
    As   -14.289954601778
    C(-4)   -144.14380954655
    C(4)   -4.6069112063463
    Ca   -3.8729186688075
    Cl   -3.890394389014
    Mg   -4.0032589184999
    Na   -2.1724953728661
    S(-2)   -142.89429402365
    S(6)   -3.8196009773265
  -gammas
  -Isotopes
SOLUTION_RAW       6 Solution after simulation 4.
  -temp              25
  -pH                7.8824763147275
  -pe                12.722784068368
  -mu                0.0087578513868027
  -ah2o              0.99972485525131
  -total_h           111.01831315251
  -total_o           55.530138974053
  -cb                -0.00015386859869998
  -mass_water        0.99998429118383
  -total_alkalinity  0.0077180587253169
  -totals
    As   3.0261404770787e-08
    C   0.0078727669267177
    Ca   0.00021840323811025
    Cl   0.00013625758842865
    Mg   0.00015896022046685
    Na   0.0074158871398085
    S   0.00023506804025618
  -activities
    As   -14.290337339224
    C(-4)   -144.14354876087
    C(4)   -4.6078715949753
    Ca   -3.8719582801785
    Cl   -3.9085357178985
    Mg   -4.0022985298709
    Na   -2.173670561223
    S(-2)   -142.89357226508
    S(6)   -3.819490923541
  -gammas
  -Isotopes
SOLUTION_RAW       7 Solution after simulation 4.
  -temp              25
  -pH                7.9844193345666
  -pe                12.620843034978
  -mu                0.0087998256485452
  -ah2o              0.99972094865537
  -total_h           111.01831029855
  -total_o           55.530286640556
  -cb                -0.00015677853037826
  -mass_water        0.99998355346475
  -total_alkalinity  0.007819352278131
  -totals
    As   4.6484453651203e-08
    C   0.0079219670730873
    Ca   0.00017234292160318
    Cl   0.00013541376644241
    Mg   0.0001250669660208
    Na   0.0076733491604332
    S   0.0002350674685162
  -activities
    As   -14.300675264983
    C(-4)   -144.2408993336
    C(4)   -4.501325313435
    Ca   -3.9785045617188
    Cl   -3.9113256296434
    Mg   -4.1088448114112
    Na   -2.1590086677517
    S(-2)   -142.99315589486
    S(6)   -3.8171224120694
  -gammas
  -Isotopes
SOLUTION_RAW       8 Solution after simulation 4.
  -temp              25
  -pH                7.5128579784123
  -pe                13.092394934214
  -mu                0.0086770436291739
  -ah2o              0.99974790936497
  -total_h           111.01832180325
  -total_o           55.529367782922
  -cb                -0.00014514745858673
  -mass_water        0.99998864623026
  -total_alkalinity  0.0071952998017981
  -totals
    As   6.6338148576516e-09
    C   0.0076157369070476
    Ca   0.00053559101963834
    Cl   0.00013395232634667
    Mg   0.00039239508353784
    Na   0.0057982720594515
    S   0.0002350664812155
  -activities
    As   -14.254862342488
    C(-4)   -143.80319008297
    C(4)   -5.0067793093378
    Ca   -3.473050565816
    Cl   -3.91576950198
    Mg   -3.6033908155084
    Na   -2.2801368373943
    S(-2)   -142.5417638361
    S(6)   -3.8373205359168
  -gammas
  -Isotopes
SOLUTION_RAW       9 Solution after simulation 4.
  -temp              25
  -pH                7.008813166059
  -pe                13.598284431901
  -mu                0.089628895479736
  -ah2o              0.996990537739
  -total_h           111.03691279249
  -total_o           55.577329675026
  -cb                0.018751720660516
  -mass_water        1.000038386315
  -total_alkalinity  0.020295849373067
  -totals
    As   2.2427367955776e-09
    C   0.023596881872193
    Ca   0.0012358160501278
    Cl   0.058174003392627
    Mg   0.00087840930873776
    Na   0.093541733553107
    S   0.00027430430094612
  -activities
    As   -14.03888187332
    C(-4)   -142.93117670432
    C(4)   -5.1316964844378
    Ca   -3.348133390716
    Cl   -1.3473914819949
    Mg   -3.4784736404084
    Na   -1.1348835013221
    S(-2)   -142.27942552068
    S(6)   -4.0690674997544
  -gammas
  -Isotopes
SOLUTION_RAW       10 Solution after simulation 4.
  -temp              25
  -pH                8.0513738081188
  -pe                12.554269634692
  -mu                0.024196099638431
  -ah2o              0.99919362357891
  -total_h           111.02264610515
  -total_o           55.543509640799
  -cb                0.0042258201958581
  -mass_water        0.9999839346029
  -total_alkalinity  0.012255466813867
  -totals
    As   7.2798604469497e-08
    C   0.012328641006128
    Ca   0.00012450486303829
    Cl   0.0090436707158403
    Mg   8.9064064841721e-05
    Na   0.02558007236304
    S   0.00024108984731476
  -activities
    As   -14.322291875598
    C(-4)   -144.14158103632
    C(4)   -4.2657369383483
    Ca   -4.2140929368055
    Cl   -2.1104949031931
    Mg   -4.3444331864978
    Na   -1.6589155901179
    S(-2)   -143.15130775047
    S(6)   -3.9061878525359
  -gammas
  -Isotopes
SOLUTION_RAW       11 Solution after simulation 4.
  -temp              25
  -pH                8.608891204587
  -pe                11.996475778662
  -mu                0.012715667772945
  -ah2o              0.99958883895853
  -total_h           111.01936895856
  -total_o           55.534520078949
  -cb                0.00090907833662467
  -mass_water        0.99998129379338
  -total_alkalinity  0.0095741995312371
  -totals
    As   6.8627154062958e-07
    C   0.0093321325022454
    Ca   4.2361259813726e-05
    Cl   0.0018084298378455
    Mg   2.9367686225666e-05
    Na   0.012621333062577
    S   0.00023619848870388
  -activities
    As   -14.387785214584
    C(-4)   -144.80506173696
    C(4)   -3.815878339708
    Ca   -4.6639515354459
    Cl   -2.7933424752288
    Mg   -4.7942917851382
    Na   -1.9512409436598
    S(-2)   -143.64143839276
    S(6)   -3.8403244150031
  -gammas
  -Isotopes
SOLUTION_RAW       12 Solution after simulation 4.
  -temp              25
  -pH                8.6782141072081
  -pe                11.92708896482
  -mu                0.010195955202805
  -ah2o              0.99967512141069
  -total_h           111.01855501161
  -total_o           55.532099049007
  -cb                8.724431765513e-05
  -mass_water        0.99998116756582
  -total_alkalinity  0.0087806326852034
  -totals
    As   9.0366684419625e-07
    C   0.0085249466811436
    Ca   3.8248816334068e-05
    Cl   0.00046776767681516
    Mg   2.6393304340758e-05
    Na   0.0096778484103568
    S   0.00023529215259424
  -activities
    As   -14.388146580121
    C(-4)   -144.90964534475
    C(4)   -3.7822122279281
    Ca   -4.6976176472257
    Cl   -3.375888960093
    Mg   -4.8279578969181
    Na   -2.0621328080948
    S(-2)   -143.69112828351
    S(6)   -3.8210484711382
  -gammas
  -Isotopes
SOLUTION_RAW       13 Solution after simulation 4.
  -temp              25
  -pH                8.3571129633563
  -pe                12.248161738989
  -mu                0.0091800327615835
  -ah2o              0.99970516660595
  -total_h           111.01835589226
  -total_o           55.53092496876
  -cb                -0.00011138349355011
  -mass_water        0.99998187790858
  -total_alkalinity  0.0081988760926892
  -totals
    As   2.2889149449824e-07
    C   0.0081344998643588
    Ca   7.4840406484373e-05
    Cl   0.00019449953008815
    Mg   5.3321375044917e-05
    Na   0.0084961122881948
    S   0.00023510741526582
  -activities
    As   -14.340332344532
    C(-4)   -144.60122605276
    C(4)   -4.1161852425026
    Ca   -4.3636446326512
    Cl   -3.7548938733931
    Mg   -4.4939848823436
    Na   -2.1159579757197
    S(-2)   -143.36343977396
    S(6)   -3.8146389567446
  -gammas
  -Isotopes
SOLUTION_RAW       14 Solution after simulation 4.
  -temp              25
  -pH                7.4871573680407
  -pe                13.118095833377
  -mu                0.0087066778135901
  -ah2o              0.99974929660014
  -total_h           111.01833659482
  -total_o           55.529335677243
  -cb                -0.00013028697222036
  -mass_water        0.99998908836719
  -total_alkalinity  0.0071590496587239
  -totals
    As   6.0075424752e-09
    C   0.007605039434088
    Ca   0.0005709890523107
    Cl   0.00014166048570752
    Mg   0.00041843859985795
    Na   0.0056617172601563
    S   0.00023507169236999
  -activities
    As   -14.251301898578
    C(-4)   -143.77981170392
    C(4)   -5.0348063616255
    Ca   -3.4450235135283
    Cl   -3.8915368203289
    Mg   -3.5753637632206
    Na   -2.2905350544567
    S(-2)   -142.51832517865
    S(6)   -3.839587897541
  -gammas
  -Isotopes
SOLUTION_RAW       15 Solution after simulation 4.
  -temp              25
  -pH                7.4313761599806
  -pe                13.173875778613
  -mu                0.0087091258914066
  -ah2o              0.99975529216007
  -total_h           111.01833415733
  -total_o           55.529156392659
  -cb                -0.00013275467239291
  -mass_water        0.99999008446525
  -total_alkalinity  0.0070419962302358
  -totals
    As   4.820320116292e-09
    C   0.0075452802390983
    Ca   0.00065878016812274
    Cl   0.00013518109070281
    Mg   0.00048305459695108
    Na   0.0052308925629621
    S   0.00023506731212197
  -activities
    As   -14.246053220122
    C(-4)   -143.73142671323
    C(4)   -5.0979777855891
    Ca   -3.3818520895647
    Cl   -3.9118754458301
    Mg   -3.5121923392571
    Na   -2.3248754246748
    S(-2)   -142.46757124773
    S(6)   -3.8446047766696
  -gammas
  -Isotopes
SOLUTION_RAW       16 Solution after simulation 4.
  -temp              25
  -pH                7.4146490735204
  -pe                13.190602555371
  -mu                0.0087140003267161
  -ah2o              0.99975716647087
  -total_h           111.01833390246
  -total_o           55.529101073527
  -cb                -0.00013301353455524
  -mass_water        0.9999904020751
  -total_alkalinity  0.0070053763245541
  -totals
    As   4.5143144586549e-09
    C   0.0075268409409577
    Ca   0.00068793511912982
    Cl   0.00013434194806873
    Mg   0.00050451246034758
    Na   0.0050919475817289
    S   0.00023506674415079
  -activities
    As   -14.244540146809
    C(-4)   -143.71706176752
    C(4)   -5.1170669762631
    Ca   -3.3627628988907
    Cl   -3.9145906627675
    Mg   -3.4931031485831
    Na   -2.3365660818749
    S(-2)   -142.45253092442
    S(6)   -3.8462906731928
  -gammas
  -Isotopes
SOLUTION_RAW       17 Solution after simulation 4.
  -temp              25
  -pH                7.3252955367812
  -pe                13.279955404969
  -mu                0.0087850657056517
  -ah2o              0.99976761665364
  -total_h           111.01834580969
  -total_o           55.528818465269
  -cb                -0.0001210786355162
  -mass_water        0.99999226732206
  -total_alkalinity  0.0068050493562403
  -totals
    As   3.2051958061869e-09
    C   0.0074326444219165
    Ca   0.00086927785141579
    Cl   0.00013380243409116
    Mg   0.00063796346256212
    Na   0.0042734264922582
    S   0.00023506638010148
  -activities
    As   -14.2351990231
    C(-4)   -143.64110295358
    C(4)   -5.2198046281749
    Ca   -3.2600252469789
    Cl   -3.9164957733216
    Mg   -3.3903654966713
    Na   -2.4127597914459
    S(-2)   -142.37385243591
    S(6)   -3.8569499339692
  -gammas
  -Isotopes
SOLUTION_RAW       18 Solution after simulation 4.
  -temp              25
  -pH                7.0789361743556
  -pe                13.527966704128
  -mu                0.080647447885231
  -ah2o              0.99729231046773
  -total_h           111.03503366024
  -total_o           55.573306864657
  -cb                0.016834583336502
  -mass_water        1.0000284191657
  -total_alkalinity  0.019528081214989
  -totals
    As   2.6623041842942e-09
    C   0.022256567299702
    Ca   0.0010499660482891
    Cl   0.051107100513139
    Mg   0.00074802309693324
    Na   0.084412842883158
    S   0.0002695267233345
  -activities
    As   -14.073922114494
    C(-4)   -143.01205246202
    C(4)   -5.0734896801396
    Ca   -3.4063401950142
    Cl   -1.39937081814
    Mg   -3.5366804447066
    Na   -1.1760143847095
    S(-2)   -142.33515414374
    S(6)   -4.0557051321505
  -gammas
  -Isotopes
SOLUTION_RAW       19 Solution after simulation 4.
  -temp              25
  -pH                8.0866390920646
  -pe                12.518975086568
  -mu                0.023031359398913
  -ah2o              0.99923336561948
  -total_h           111.02226125001
  -total_o           55.542421517497
  -cb                0.0038375380343221
  -mass_water        0.99998358649184
  -total_alkalinity  0.011918030811165
  -totals
    As   8.345890400286e-08
    C   0.011965979609694
    Ca   0.00011677767483581
    Cl   0.0084072888880686
    Mg   8.3482387648099e-05
    Na   0.02424374029103
    S   0.00024065961176891
  -activities
    As   -14.32690988692
    C(-4)   -144.18795278484
    C(4)   -4.2417604130318
    Ca   -4.238069462122
    Cl   -2.1408065593211
    Mg   -4.3684097118143
    Na   -1.6809483473359
    S(-2)   -143.18081548896
    S(6)   -3.9005953270431
  -gammas
  -Isotopes
SOLUTION_RAW       20 Solution after simulation 4.
  -temp              25
  -pH                8.5861852935608
  -pe                12.019179866463
  -mu                0.012670727264276
  -ah2o              0.99958983779799
  -total_h           111.01934331728
  -total_o           55.534390992229
  -cb                0.0008837630062038
  -mass_water        0.99998133710303
  -total_alkalinity  0.0095136837142113
  -totals
    As   6.2372007422417e-07
    C   0.0092891747277772
    Ca   4.4429724585157e-05
    Cl   0.0018442909146339
    Mg   3.0886364970464e-05
    Na   0.012564174632276
    S   0.00023622272813195
  -activities
    As   -14.383896893389
    C(-4)   -144.78372904694
    C(4)   -3.8399716770934
    Ca   -4.6398581980604
    Cl   -2.7847357787697
    Mg   -4.7701984477527
    Na   -1.953067165129
    S(-2)   -143.61844455819
    S(6)   -3.8400506470305
  -gammas
  -Isotopes
SOLUTION_RAW       21 Solution after simulation 4.
  -temp              25
  -pH                8.6338903712829
  -pe                11.971411284376
  -mu                0.010157685845017
  -ah2o              0.99967540233756
  -total_h           111.01856227363
  -total_o           55.532027270536
  -cb                9.5111556907133e-05
  -mass_water        0.99998124313908
  -total_alkalinity  0.0087254862217701
  -totals
    As   7.4941518879973e-07
    C   0.0085012210112076
    Ca   4.1738160790759e-05
    Cl   0.00049714086702119
    Mg   2.895823178459e-05
    Na   0.0096477192906641
    S   0.00023531200746377
  -activities
    As   -14.381029654102
    C(-4)   -144.86528022201
    C(4)   -3.8265058120405
    Ca   -4.6533240631133
    Cl   -3.3493627340851
    Mg   -4.7836643128056
    Na   -2.0632862440153
    S(-2)   -143.64666656206
    S(6)   -3.8209218316991
  -gammas
  -Isotopes
SOLUTION_RAW       22 Solution after simulation 4.
  -temp              25
  -pH                8.2841465545335
  -pe                12.321126544204
  -mu                0.009134280685275
  -ah2o              0.99970662151803
  -total_h           111.01836149362
  -total_o           55.530843413534
  -cb                -0.00010555142915133
  -mass_water        0.99998211396809
  -total_alkalinity  0.0081389021753749
  -totals
    As   1.6760427982987e-07
    C   0.0081073955819775
    Ca   8.764224130417e-05
    Cl   0.00020336179385441
    Mg   6.2738356891697e-05
    Na   0.0084063457574025
    S   0.0002351134047182
  -activities
    As   -14.331585907509
    C(-4)   -144.52932105482
    C(4)   -4.190225424561
    Ca   -4.2896044505928
    Cl   -3.7354450301515
    Mg   -4.4199447002852
    Na   -2.1203779547756
    S(-2)   -143.29082211618
    S(6)   -3.8150004636691
  -gammas
  -Isotopes
SOLUTION_RAW       23 Solution after simulation 4.
  -temp              25
  -pH                7.497821634614
  -pe                13.10743187991
  -mu                0.008710046162897
  -ah2o              0.99974813610223
  -total_h           111.01833747622
  -total_o           55.529369517625
  -cb                -0.00012939143994789
  -mass_water        0.99998890870788
  -total_alkalinity  0.007180713945503
  -totals
    As   6.2676972903664e-09
    C   0.0076163184876191
    Ca   0.00055572637238529
    Cl   0.00014492335610253
    Mg   0.00040720427476061
    Na   0.0057405386314196
    S   0.00023507389817825
  -activities
    As   -14.252327396422
    C(-4)   -143.78914835442
    C(4)   -5.0228051579184
    Ca   -3.4570247172355
    Cl   -3.8816545330757
    Mg   -3.5873649669278
    Na   -2.2845445867359
    S(-2)   -142.52815142554
    S(6)   -3.8387392602381
  -gammas
  -Isotopes
SOLUTION_RAW       24 Solution after simulation 4.
  -temp              25
  -pH                7.429475389891
  -pe                13.175776442629
  -mu                0.0087072477949821
  -ah2o              0.99975558956443
  -total_h           111.01833282958
  -total_o           55.529146494908
  -cb                -0.0001340888817833
  -mass_water        0.9999901187298
  -total_alkalinity  0.0070367309640522
  -totals
    As   4.7817870968192e-09
    C   0.0075419807132207
    Ca   0.0006620907921838
    Cl   0.00013439937065025
    Mg   0.00048549215339193
    Na   0.0052120139107776
    S   0.00023506678361141
  -activities
    As   -14.246107329028
    C(-4)   -143.72985607852
    C(4)   -5.100209133987
    Ca   -3.3796207411668
    Cl   -3.9143900195582
    Mg   -3.5099609908591
    Na   -2.3264402494101
    S(-2)   -142.46584286699
    S(6)   -3.8447774759268
  -gammas
  -Isotopes
SOLUTION_RAW       25 Solution after simulation 4.
  -temp              25
  -pH                7.3801559394785
  -pe                13.225095301044
  -mu                0.0087345627007215
  -ah2o              0.99976100825492
  -total_h           111.01833737486
  -total_o           55.528993814655
  -cb                -0.00012953405568173
  -mass_water        0.99999108958818
  -total_alkalinity  0.0069303953935394
  -totals
    As   3.949734916911e-09
    C   0.0074910900740297
    Ca   0.0007524514652436
    Cl   0.00013389614852136
    Mg   0.00055199245883328
    Na   0.0047960064739773
    S   0.00023506644300853
  -activities
    As   -14.241117660355
    C(-4)   -143.68749745164
    C(4)   -5.1564870578829
    Ca   -3.3233428172709
    Cl   -3.9160799292831
    Mg   -3.4536830669632
    Na   -2.3625897153843
    S(-2)   -142.42182670235
    S(6)   -3.8500760520683
  -gammas
  -Isotopes
SOLUTION_RAW       26 Solution after simulation 4.
  -temp              25
  -pH                7.312269894786
  -pe                13.292981015949
  -mu                0.0087998686887456
  -ah2o              0.99976931920275
  -total_h           111.01834777289
  -total_o           55.528774325088
  -cb                -0.00011911097490348
  -mass_water        0.99999256180236
  -total_alkalinity  0.0067736568832164
  -totals
    As   3.051286307898e-09
    C   0.007417931959333
    Ca   0.00089993245873384
    Cl   0.00013374363639728
    Mg   0.00066052086328797
    Na   0.0041375186328646
    S   0.00023506634045584
  -activities
    As   -14.233828659179
    C(-4)   -143.63023604057
    C(4)   -5.2349877962011
    Ca   -3.2448420789527
    Cl   -3.9167193271954
    Mg   -3.375182328645
    Na   -2.4268172968624
    S(-2)   -142.36262568288
    S(6)   -3.8587470753883
  -gammas
  -Isotopes
SOLUTION_RAW       27 Solution after simulation 4.
  -temp              25
  -pH                7.1761571329356
  -pe                13.430521331677
  -mu                0.070320169009141
  -ah2o              0.99763892978933
  -total_h           111.03288503968
  -total_o           55.568636183123
  -cb                0.014642293411858
  -mass_water        1.0000174708852
  -total_alkalinity  0.018603057774758
  -totals
    As   3.4557246563582e-09
    C   0.02070035846977
    Ca   0.00083777276329431
    Cl   0.043017071009286
    Mg   0.00059840426210963
    Na   0.073918186512735
    S   0.0002640574559581
  -activities
    As   -14.116182571876
    C(-4)   -143.12305342144
    C(4)   -4.9913912815921
    Ca   -3.4884385935617
    Cl   -1.4688266359209
    Mg   -3.618778843254
    Na   -1.2292265824478
    S(-2)   -142.41354953389
    S(6)   -4.0380711995317
  -gammas
  -Isotopes
SOLUTION_RAW       28 Solution after simulation 4.
  -temp              25
  -pH                8.1076036197016
  -pe                12.497996208004
  -mu                0.022493209104583
  -ah2o              0.99925176087185
  -total_h           111.02203806169
  -total_o           55.541791433418
  -cb                0.0036129784046261
  -mass_water        0.99998339102738
  -total_alkalinity  0.011722375058025
  -totals
    As   9.0649316694544e-08
    C   0.011755945490067
    Ca   0.00011259581955016
    Cl   0.0081751634050986
    Mg   8.0456696050001e-05
    Na   0.023605507823617
    S   0.00024050266887578
  -activities
    As   -14.32968578524
    C(-4)   -144.21572219458
    C(4)   -4.227691587847
    Ca   -4.2521382873069
    Cl   -2.1523143129633
    Mg   -4.3824785369992
    Na   -1.6919291891447
    S(-2)   -143.1989182727
    S(6)   -3.8978164048417
  -gammas
  -Isotopes
SOLUTION_RAW       29 Solution after simulation 4.
  -temp              25
  -pH                8.5895636814729
  -pe                12.015805835099
  -mu                0.012858564020272
  -ah2o              0.99958356960101
  -total_h           111.0193765012
  -total_o           55.534504989375
  -cb                0.00091754853862148
  -mass_water        0.99998132745569
  -total_alkalinity  0.0095558964628694
  -totals
    As   6.3352542207599e-07
    C   0.0093271399328531
    Ca   4.4113846472371e-05
    Cl   0.0019721943918891
    Mg   3.0651474215731e-05
    Na   0.012769360655383
    S   0.00023630918897847
  -activities
    As   -14.385071411837
    C(-4)   -144.78580973607
    C(4)   -3.8352689170137
    Ca   -4.6445609581402
    Cl   -2.7559443335959
    Mg   -4.7749012078325
    Na   -1.946354681898
    S(-2)   -143.62309384942
    S(6)   -3.8412976115593
  -gammas
  -Isotopes
SOLUTION_RAW       30 Solution after simulation 4.
  -temp              25
  -pH                8.6962200853079
  -pe                11.909088880104
  -mu                0.010426703901817
  -ah2o              0.99966782708589
  -total_h           111.01860786008
  -total_o           55.532309060864
  -cb                0.0001404441248237
  -mass_water        0.99998113684804
  -total_alkalinity  0.0088672136937768
  -totals
    As   9.7666053994265e-07
    C   0.0085948401855424
    Ca   3.6861552827063e-05
    Cl   0.00057762046448084
    Mg   2.5370172734333e-05
    Na   0.0099325243105608
    S   0.00023536640903117
  -activities
    As   -14.391980864096
    C(-4)   -144.92518965559
    C(4)   -3.7617077949441
    Ca   -4.7181220802097
    Cl   -3.2847371857723
    Mg   -4.848462329902
    Na   -2.0513556742253
    S(-2)   -143.71093358558
    S(6)   -3.8228145843767
  -gammas
  -Isotopes
SOLUTION_RAW       31 Solution after simulation 4.
  -temp              25
  -pH                8.5190103723831
  -pe                12.086271770974
  -mu                0.009434849731054
  -ah2o              0.99969782702867
  -total_h           111.01837833806
  -total_o           55.531238405872
  -cb                -8.9401875263167e-05
  -mass_water        0.99998146549093
  -total_alkalinity  0.0083850303329798
  -totals
    As   4.5759005589502e-07
    C   0.0082386691612689
    Ca   5.3147303107382e-05
    Cl   0.00023692499417366
    Mg   3.7361297824686e-05
    Na   0.0088222660178741
    S   0.00023513608889604
  -activities
    As   -14.361644614522
    C(-4)   -144.75995000555
    C(4)   -3.9510654780862
    Ca   -4.5287643970676
    Cl   -3.6697426239401
    Mg   -4.65910464676
    Na   -2.1004028401469
    S(-2)   -143.52627990001
    S(6)   -3.815536834298
  -gammas
  -Isotopes
SOLUTION_RAW       32 Solution after simulation 4.
  -temp              25
  -pH                7.8383561276945
  -pe                12.766903591138