#PHAST restart file
#Prefix: ex4_start_time
#Date: Fri Feb 20 09:29:47 2015

#Current model time: 4.733722e+12
#Grid cells: 720
#Chemistry cells: 657
657
0.000000e+00 0.000000e+00 0.000000e+00 0 2 2 2 2 -1 -1 -1 
6.000000e+03 0.000000e+00 0.000000e+00 1 2 2 2 2 -1 -1 -1 
1.200000e+04 0.000000e+00 0.000000e+00 2 2 2 2 2 -1 -1 -1 
1.800000e+04 0.000000e+00 0.000000e+00 3 2 2 2 2 -1 -1 -1 
2.400000e+04 0.000000e+00 0.000000e+00 4 2 2 2 2 -1 -1 -1 
3.000000e+04 0.000000e+00 0.000000e+00 5 2 2 2 2 -1 -1 -1 
3.600000e+04 0.000000e+00 0.000000e+00 6 2 2 2 2 -1 -1 -1 
4.200000e+04 0.000000e+00 0.000000e+00 7 2 2 2 2 -1 -1 -1 
4.800000e+04 0.000000e+00 0.000000e+00 8 2 2 2 2 -1 -1 -1 
0.000000e+00 6.000000e+03 0.000000e+00 9 2 2 2 2 -1 -1 -1 
6.000000e+03 6.000000e+03 0.000000e+00 10 2 2 2 2 -1 -1 -1 
1.200000e+04 6.000000e+03 0.000000e+00 11 2 2 2 2 -1 -1 -1 
1.800000e+04 6.000000e+03 0.000000e+00 12 2 2 2 2 -1 -1 -1 
2.400000e+04 6.000000e+03 0.000000e+00 13 2 2 2 2 -1 -1 -1 
3.000000e+04 6.000000e+03 0.000000e+00 14 2 2 2 2 -1 -1 -1 
3.600000e+04 6.000000e+03 0.000000e+00 15 2 2 2 2 -1 -1 -1 
4.200000e+04 6.000000e+03 0.000000e+00 16 2 2 2 2 -1 -1 -1 
4.800000e+04 6.000000e+03 0.000000e+00 17 2 2 2 2 -1 -1 -1 
0.000000e+00 1.200000e+04 0.000000e+00 18 2 2 2 2 -1 -1 -1 
6.000000e+03 1.200000e+04 0.000000e+00 19 2 2 2 2 -1 -1 -1 
1.200000e+04 1.200000e+04 0.000000e+00 20 2 2 2 2 -1 -1 -1 
1.800000e+04 1.200000e+04 0.000000e+00 21 2 2 2 2 -1 -1 -1 
2.400000e+04 1.200000e+04 0.000000e+00 22 2 2 2 2 -1 -1 -1 
3.000000e+04 1.200000e+04 0.000000e+00 23 2 2 2 2 -1 -1 -1 
3.600000e+04 1.200000e+04 0.000000e+00 24 2 2 2 2 -1 -1 -1 
4.200000e+04 1.200000e+04 0.000000e+00 25 2 2 2 2 -1 -1 -1 
4.800000e+04 1.200000e+04 0.000000e+00 26 2 2 2 2 -1 -1 -1 
0.000000e+00 1.800000e+04 0.000000e+00 27 2 2 2 2 -1 -1 -1 
6.000000e+03 1.800000e+04 0.000000e+00 28 2 2 2 2 -1 -1 -1 
1.200000e+04 1.800000e+04 0.000000e+00 29 2 2 2 2 -1 -1 -1 
1.800000e+04 1.800000e+04 0.000000e+00 30 2 2 2 2 -1 -1 -1 
2.400000e+04 1.800000e+04 0.000000e+00 31 2 2 2 2 -1 -1 -1 
3.000000e+04 1.800000e+04 0.000000e+00 32 2 2 2 2 -1 -1 -1 
3.600000e+04 1.800000e+04 0.000000e+00 33 2 2 2 2 -1 -1 -1 
4.200000e+04 1.800000e+04 0.000000e+00 34 2 2 2 2 -1 -1 -1 
4.800000e+04 1.800000e+04 0.000000e+00 35 2 2 2 2 -1 -1 -1 
0.000000e+00 2.400000e+04 0.000000e+00 36 2 2 2 2 -1 -1 -1 
6.000000e+03 2.400000e+04 0.000000e+00 37 2 2 2 2 -1 -1 -1 
1.200000e+04 2.400000e+04 0.000000e+00 38 2 2 2 2 -1 -1 -1 
1.800000e+04 2.400000e+04 0.000000e+00 39 2 2 2 2 -1 -1 -1 
2.400000e+04 2.400000e+04 0.000000e+00 40 2 2 2 2 -1 -1 -1 
3.000000e+04 2.400000e+04 0.000000e+00 41 2 2 2 2 -1 -1 -1 
3.600000e+04 2.400000e+04 0.000000e+00 42 2 2 2 2 -1 -1 -1 
4.200000e+04 2.400000e+04 0.000000e+00 43 2 2 2 2 -1 -1 -1 
4.800000e+04 2.400000e+04 0.000000e+00 44 2 2 2 2 -1 -1 -1 
0.000000e+00 3.000000e+04 0.000000e+00 45 2 2 2 2 -1 -1 -1 
6.000000e+03 3.000000e+04 0.000000e+00 46 2 2 2 2 -1 -1 -1 
1.200000e+04 3.000000e+04 0.000000e+00 47 2 2 2 2 -1 -1 -1 
1.800000e+04 3.000000e+04 0.000000e+00 48 2 2 2 2 -1 -1 -1 
2.400000e+04 3.000000e+04 0.000000e+00 49 2 2 2 2 -1 -1 -1 
3.000000e+04 3.000000e+04 0.000000e+00 50 2 2 2 2 -1 -1 -1 
3.600000e+04 3.000000e+04 0.000000e+00 51 2 2 2 2 -1 -1 -1 
4.200000e+04 3.000000e+04 0.000000e+00 52 2 2 2 2 -1 -1 -1 
4.800000e+04 3.000000e+04 0.000000e+00 53 2 2 2 2 -1 -1 -1 
0.000000e+00 3.600000e+04 0.000000e+00 54 2 2 2 2 -1 -1 -1 
6.000000e+03 3.600000e+04 0.000000e+00 55 2 2 2 2 -1 -1 -1 
1.200000e+04 3.600000e+04 0.000000e+00 56 2 2 2 2 -1 -1 -1 
1.800000e+04 3.600000e+04 0.000000e+00 57 2 2 2 2 -1 -1 -1 
2.400000e+04 3.600000e+04 0.000000e+00 58 2 2 2 2 -1 -1 -1 
3.000000e+04 3.600000e+04 0.000000e+00 59 2 2 2 2 -1 -1 -1 
3.600000e+04 3.600000e+04 0.000000e+00 60 2 2 2 2 -1 -1 -1 
4.200000e+04 3.600000e+04 0.000000e+00 61 2 2 2 2 -1 -1 -1 
4.800000e+04 3.600000e+04 0.000000e+00 62 2 2 2 2 -1 -1 -1 
0.000000e+00 4.200000e+04 0.000000e+00 63 2 2 2 2 -1 -1 -1 
6.000000e+03 4.200000e+04 0.000000e+00 64 2 2 2 2 -1 -1 -1 
1.200000e+04 4.200000e+04 0.000000e+00 65 2 2 2 2 -1 -1 -1 
1.800000e+04 4.200000e+04 0.000000e+00 66 2 2 2 2 -1 -1 -1 
2.400000e+04 4.200000e+04 0.000000e+00 67 2 2 2 2 -1 -1 -1 
3.000000e+04 4.200000e+04 0.000000e+00 68 2 2 2 2 -1 -1 -1 
3.600000e+04 4.200000e+04 0.000000e+00 69 2 2 2 2 -1 -1 -1 
4.200000e+04 4.200000e+04 0.000000e+00 70 2 2 2 2 -1 -1 -1 
4.800000e+04 4.200000e+04 0.000000e+00 71 2 2 2 2 -1 -1 -1 
0.000000e+00 4.800000e+04 0.000000e+00 72 2 2 2 2 -1 -1 -1 
6.000000e+03 4.800000e+04 0.000000e+00 73 2 2 2 2 -1 -1 -1 
1.200000e+04 4.800000e+04 0.000000e+00 74 2 2 2 2 -1 -1 -1 
1.800000e+04 4.800000e+04 0.000000e+00 75 2 2 2 2 -1 -1 -1 
2.400000e+04 4.800000e+04 0.000000e+00 76 2 2 2 2 -1 -1 -1 
3.000000e+04 4.800000e+04 0.000000e+00 77 2 2 2 2 -1 -1 -1 
3.600000e+04 4.800000e+04 0.000000e+00 78 2 2 2 2 -1 -1 -1 
4.200000e+04 4.800000e+04 0.000000e+00 79 2 2 2 2 -1 -1 -1 
4.800000e+04 4.800000e+04 0.000000e+00 80 2 2 2 2 -1 -1 -1 
0.000000e+00 0.000000e+00 1.000000e+02 81 2 2 2 2 -1 -1 -1 
6.000000e+03 0.000000e+00 1.000000e+02 82 2 2 2 2 -1 -1 -1 
1.200000e+04 0.000000e+00 1.000000e+02 83 2 2 2 2 -1 -1 -1 
1.800000e+04 0.000000e+00 1.000000e+02 84 2 2 2 2 -1 -1 -1 
2.400000e+04 0.000000e+00 1.000000e+02 85 2 2 2 2 -1 -1 -1 
3.000000e+04 0.000000e+00 1.000000e+02 86 2 2 2 2 -1 -1 -1 
3.600000e+04 0.000000e+00 1.000000e+02 87 2 2 2 2 -1 -1 -1 
4.200000e+04 0.000000e+00 1.000000e+02 88 2 2 2 2 -1 -1 -1 
4.800000e+04 0.000000e+00 1.000000e+02 89 2 2 2 2 -1 -1 -1 
5.400000e+04 0.000000e+00 1.000000e+02 90 2 2 2 2 -1 -1 -1 
6.000000e+04 0.000000e+00 1.000000e+02 91 2 2 2 2 -1 -1 -1 
6.600000e+04 0.000000e+00 1.000000e+02 92 2 2 2 2 -1 -1 -1 
7.200000e+04 0.000000e+00 1.000000e+02 93 2 2 2 2 -1 -1 -1 
7.800000e+04 0.000000e+00 1.000000e+02 94 2 2 2 2 -1 -1 -1 
8.400000e+04 0.000000e+00 1.000000e+02 95 2 2 2 2 -1 -1 -1 
9.000000e+04 0.000000e+00 1.000000e+02 96 2 2 2 2 -1 -1 -1 
0.000000e+00 6.000000e+03 1.000000e+02 97 2 2 2 2 -1 -1 -1 
6.000000e+03 6.000000e+03 1.000000e+02 98 2 2 2 2 -1 -1 -1 
1.200000e+04 6.000000e+03 1.000000e+02 99 2 2 2 2 -1 -1 -1 
1.800000e+04 6.000000e+03 1.000000e+02 100 2 2 2 2 -1 -1 -1 
2.400000e+04 6.000000e+03 1.000000e+02 101 2 2 2 2 -1 -1 -1 
3.000000e+04 6.000000e+03 1.000000e+02 102 2 2 2 2 -1 -1 -1 
3.600000e+04 6.000000e+03 1.000000e+02 103 2 2 2 2 -1 -1 -1 
4.200000e+04 6.000000e+03 1.000000e+02 104 2 2 2 2 -1 -1 -1 
4.800000e+04 6.000000e+03 1.000000e+02 105 2 2 2 2 -1 -1 -1 
5.400000e+04 6.000000e+03 1.000000e+02 106 2 2 2 2 -1 -1 -1 
6.000000e+04 6.000000e+03 1.000000e+02 107 2 2 2 2 -1 -1 -1 
6.600000e+04 6.000000e+03 1.000000e+02 108 2 2 2 2 -1 -1 -1 
7.200000e+04 6.000000e+03 1.000000e+02 109 2 2 2 2 -1 -1 -1 
7.800000e+04 6.000000e+03 1.000000e+02 110 2 2 2 2 -1 -1 -1 
8.400000e+04 6.000000e+03 1.000000e+02 111 2 2 2 2 -1 -1 -1 
9.000000e+04 6.000000e+03 1.000000e+02 112 2 2 2 2 -1 -1 -1 
0.000000e+00 1.200000e+04 1.000000e+02 113 2 2 2 2 -1 -1 -1 
6.000000e+03 1.200000e+04 1.000000e+02 114 2 2 2 2 -1 -1 -1 
1.200000e+04 1.200000e+04 1.000000e+02 115 2 2 2 2 -1 -1 -1 
1.800000e+04 1.200000e+04 1.000000e+02 116 2 2 2 2 -1 -1 -1 
2.400000e+04 1.200000e+04 1.000000e+02 117 2 2 2 2 -1 -1 -1 
3.000000e+04 1.200000e+04 1.000000e+02 118 2 2 2 2 -1 -1 -1 
3.600000e+04 1.200000e+04 1.000000e+02 119 2 2 2 2 -1 -1 -1 
4.200000e+04 1.200000e+04 1.000000e+02 120 2 2 2 2 -1 -1 -1 
4.800000e+04 1.200000e+04 1.000000e+02 121 2 2 2 2 -1 -1 -1 
5.400000e+04 1.200000e+04 1.000000e+02 122 2 2 2 2 -1 -1 -1 
6.000000e+04 1.200000e+04 1.000000e+02 123 2 2 2 2 -1 -1 -1 
6.600000e+04 1.200000e+04 1.000000e+02 124 2 2 2 2 -1 -1 -1 
7.200000e+04 1.200000e+04 1.000000e+02 125 2 2 2 2 -1 -1 -1 
7.800000e+04 1.200000e+04 1.000000e+02 126 2 2 2 2 -1 -1 -1 
8.400000e+04 1.200000e+04 1.000000e+02 127 2 2 2 2 -1 -1 -1 
9.000000e+04 1.200000e+04 1.000000e+02 128 2 2 2 2 -1 -1 -1 
0.000000e+00 1.800000e+04 1.000000e+02 129 2 2 2 2 -1 -1 -1 
6.000000e+03 1.800000e+04 1.000000e+02 130 2 2 2 2 -1 -1 -1 
1.200000e+04 1.800000e+04 1.000000e+02 131 2 2 2 2 -1 -1 -1 
1.800000e+04 1.800000e+04 1.000000e+02 132 2 2 2 2 -1 -1 -1 
2.400000e+04 1.800000e+04 1.000000e+02 133 2 2 2 2 -1 -1 -1 
3.000000e+04 1.800000e+04 1.000000e+02 134 2 2 2 2 -1 -1 -1 
3.600000e+04 1.800000e+04 1.000000e+02 135 2 2 2 2 -1 -1 -1 
4.200000e+04 1.800000e+04 1.000000e+02 136 2 2 2 2 -1 -1 -1 
4.800000e+04 1.800000e+04 1.000000e+02 137 2 2 2 2 -1 -1 -1 
5.400000e+04 1.800000e+04 1.000000e+02 138 2 2 2 2 -1 -1 -1 
6.000000e+04 1.800000e+04 1.000000e+02 139 2 2 2 2 -1 -1 -1 
6.600000e+04 1.800000e+04 1.000000e+02 140 2 2 2 2 -1 -1 -1 
7.200000e+04 1.800000e+04 1.000000e+02 141 2 2 2 2 -1 -1 -1 
7.800000e+04 1.800000e+04 1.000000e+02 142 2 2 2 2 -1 -1 -1 
8.400000e+04 1.800000e+04 1.000000e+02 143 2 2 2 2 -1 -1 -1 
9.000000e+04 1.800000e+04 1.000000e+02 144 2 2 2 2 -1 -1 -1 
0.000000e+00 2.400000e+04 1.000000e+02 145 2 2 2 2 -1 -1 -1 
6.000000e+03 2.400000e+04 1.000000e+02 146 2 2 2 2 -1 -1 -1 
1.200000e+04 2.400000e+04 1.000000e+02 147 2 2 2 2 -1 -1 -1 
1.800000e+04 2.400000e+04 1.000000e+02 148 2 2 2 2 -1 -1 -1 
2.400000e+04 2.400000e+04 1.000000e+02 149 2 2 2 2 -1 -1 -1 
3.000000e+04 2.400000e+04 1.000000e+02 150 2 2 2 2 -1 -1 -1 
3.600000e+04 2.400000e+04 1.000000e+02 151 2 2 2 2 -1 -1 -1 
4.200000e+04 2.400000e+04 1.000000e+02 152 2 2 2 2 -1 -1 -1 
4.800000e+04 2.400000e+04 1.000000e+02 153 2 2 2 2 -1 -1 -1 
5.400000e+04 2.400000e+04 1.000000e+02 154 2 2 2 2 -1 -1 -1 
6.000000e+04 2.400000e+04 1.000000e+02 155 2 2 2 2 -1 -1 -1 
6.600000e+04 2.400000e+04 1.000000e+02 156 2 2 2 2 -1 -1 -1 
7.200000e+04 2.400000e+04 1.000000e+02 157 2 2 2 2 -1 -1 -1 
7.800000e+04 2.400000e+04 1.000000e+02 158 2 2 2 2 -1 -1 -1 
8.400000e+04 2.400000e+04 1.000000e+02 159 2 2 2 2 -1 -1 -1 
9.000000e+04 2.400000e+04 1.000000e+02 160 2 2 2 2 -1 -1 -1 
0.000000e+00 3.000000e+04 1.000000e+02 161 2 2 2 2 -1 -1 -1 
6.000000e+03 3.000000e+04 1.000000e+02 162 2 2 2 2 -1 -1 -1 
1.200000e+04 3.000000e+04 1.000000e+02 163 2 2 2 2 -1 -1 -1 
1.800000e+04 3.000000e+04 1.000000e+02 164 2 2 2 2 -1 -1 -1 
2.400000e+04 3.000000e+04 1.000000e+02 165 2 2 2 2 -1 -1 -1 
3.000000e+04 3.000000e+04 1.000000e+02 166 2 2 2 2 -1 -1 -1 
3.600000e+04 3.000000e+04 1.000000e+02 167 2 2 2 2 -1 -1 -1 
4.200000e+04 3.000000e+04 1.000000e+02 168 2 2 2 2 -1 -1 -1 
4.800000e+04 3.000000e+04 1.000000e+02 169 2 2 2 2 -1 -1 -1 
5.400000e+04 3.000000e+04 1.000000e+02 170 2 2 2 2 -1 -1 -1 
6.000000e+04 3.000000e+04 1.000000e+02 171 2 2 2 2 -1 -1 -1 
6.600000e+04 3.000000e+04 1.000000e+02 172 2 2 2 2 -1 -1 -1 
7.200000e+04 3.000000e+04 1.000000e+02 173 2 2 2 2 -1 -1 -1 
7.800000e+04 3.000000e+04 1.000000e+02 174 2 2 2 2 -1 -1 -1 
8.400000e+04 3.000000e+04 1.000000e+02 175 2 2 2 2 -1 -1 -1 
9.000000e+04 3.000000e+04 1.000000e+02 176 2 2 2 2 -1 -1 -1 
0.000000e+00 3.600000e+04 1.000000e+02 177 2 2 2 2 -1 -1 -1 
6.000000e+03 3.600000e+04 1.000000e+02 178 2 2 2 2 -1 -1 -1 
1.200000e+04 3.600000e+04 1.000000e+02 179 2 2 2 2 -1 -1 -1 
1.800000e+04 3.600000e+04 1.000000e+02 180 2 2 2 2 -1 -1 -1 
2.400000e+04 3.600000e+04 1.000000e+02 181 2 2 2 2 -1 -1 -1 
3.000000e+04 3.600000e+04 1.000000e+02 182 2 2 2 2 -1 -1 -1 
3.600000e+04 3.600000e+04 1.000000e+02 183 2 2 2 2 -1 -1 -1 
4.200000e+04 3.600000e+04 1.000000e+02 184 2 2 2 2 -1 -1 -1 
4.800000e+04 3.600000e+04 1.000000e+02 185 2 2 2 2 -1 -1 -1 
5.400000e+04 3.600000e+04 1.000000e+02 186 2 2 2 2 -1 -1 -1 
6.000000e+04 3.600000e+04 1.000000e+02 187 2 2 2 2 -1 -1 -1 
6.600000e+04 3.600000e+04 1.000000e+02 188 2 2 2 2 -1 -1 -1 
7.200000e+04 3.600000e+04 1.000000e+02 189 2 2 2 2 -1 -1 -1 
7.800000e+04 3.600000e+04 1.000000e+02 190 2 2 2 2 -1 -1 -1 
8.400000e+04 3.600000e+04 1.000000e+02 191 2 2 2 2 -1 -1 -1 
9.000000e+04 3.600000e+04 1.000000e+02 192 2 2 2 2 -1 -1 -1 
0.000000e+00 4.200000e+04 1.000000e+02 193 2 2 2 2 -1 -1 -1 
6.000000e+03 4.200000e+04 1.000000e+02 194 2 2 2 2 -1 -1 -1 
1.200000e+04 4.200000e+04 1.000000e+02 195 2 2 2 2 -1 -1 -1 
1.800000e+04 4.200000e+04 1.000000e+02 196 2 2 2 2 -1 -1 -1 
2.400000e+04 4.200000e+04 1.000000e+02 197 2 2 2 2 -1 -1 -1 
3.000000e+04 4.200000e+04 1.000000e+02 198 2 2 2 2 -1 -1 -1 
3.600000e+04 4.200000e+04 1.000000e+02 199 2 2 2 2 -1 -1 -1 
4.200000e+04 4.200000e+04 1.000000e+02 200 2 2 2 2 -1 -1 -1 
4.800000e+04 4.200000e+04 1.000000e+02 201 2 2 2 2 -1 -1 -1 
5.400000e+04 4.200000e+04 1.000000e+02 202 2 2 2 2 -1 -1 -1 
6.000000e+04 4.200000e+04 1.000000e+02 203 2 2 2 2 -1 -1 -1 
6.600000e+04 4.200000e+04 1.000000e+02 204 2 2 2 2 -1 -1 -1 
7.200000e+04 4.200000e+04 1.000000e+02 205 2 2 2 2 -1 -1 -1 
7.800000e+04 4.200000e+04 1.000000e+02 206 2 2 2 2 -1 -1 -1 
8.400000e+04 4.200000e+04 1.000000e+02 207 2 2 2 2 -1 -1 -1 
9.000000e+04 4.200000e+04 1.000000e+02 208 2 2 2 2 -1 -1 -1 
0.000000e+00 4.800000e+04 1.000000e+02 209 2 2 2 2 -1 -1 -1 
6.000000e+03 4.800000e+04 1.000000e+02 210 2 2 2 2 -1 -1 -1 
1.200000e+04 4.800000e+04 1.000000e+02 211 2 2 2 2 -1 -1 -1 
1.800000e+04 4.800000e+04 1.000000e+02 212 2 2 2 2 -1 -1 -1 
2.400000e+04 4.800000e+04 1.000000e+02 213 2 2 2 2 -1 -1 -1 
3.000000e+04 4.800000e+04 1.000000e+02 214 2 2 2 2 -1 -1 -1 
3.600000e+04 4.800000e+04 1.000000e+02 215 2 2 2 2 -1 -1 -1 
4.200000e+04 4.800000e+04 1.000000e+02 216 2 2 2 2 -1 -1 -1 
4.800000e+04 4.800000e+04 1.000000e+02 217 2 2 2 2 -1 -1 -1 
5.400000e+04 4.800000e+04 1.000000e+02 218 2 2 2 2 -1 -1 -1 
6.000000e+04 4.800000e+04 1.000000e+02 219 2 2 2 2 -1 -1 -1 
6.600000e+04 4.800000e+04 1.000000e+02 220 2 2 2 2 -1 -1 -1 
7.200000e+04 4.800000e+04 1.000000e+02 221 2 2 2 2 -1 -1 -1 
7.800000e+04 4.800000e+04 1.000000e+02 222 2 2 2 2 -1 -1 -1 
8.400000e+04 4.800000e+04 1.000000e+02 223 2 2 2 2 -1 -1 -1 
9.000000e+04 4.800000e+04 1.000000e+02 224 2 2 2 2 -1 -1 -1 
0.000000e+00 0.000000e+00 2.000000e+02 225 2 2 2 2 -1 -1 -1 
6.000000e+03 0.000000e+00 2.000000e+02 226 2 2 2 2 -1 -1 -1 
1.200000e+04 0.000000e+00 2.000000e+02 227 2 2 2 2 -1 -1 -1 
1.800000e+04 0.000000e+00 2.000000e+02 228 2 2 2 2 -1 -1 -1 
2.400000e+04 0.000000e+00 2.000000e+02 229 2 2 2 2 -1 -1 -1 
3.000000e+04 0.000000e+00 2.000000e+02 230 2 2 2 2 -1 -1 -1 
3.600000e+04 0.000000e+00 2.000000e+02 231 2 2 2 2 -1 -1 -1 
4.200000e+04 0.000000e+00 2.000000e+02 232 2 2 2 2 -1 -1 -1 
4.800000e+04 0.000000e+00 2.000000e+02 233 2 2 2 2 -1 -1 -1 
5.400000e+04 0.000000e+00 2.000000e+02 234 2 2 2 2 -1 -1 -1 
6.000000e+04 0.000000e+00 2.000000e+02 235 2 2 2 2 -1 -1 -1 
6.600000e+04 0.000000e+00 2.000000e+02 236 2 2 2 2 -1 -1 -1 
7.200000e+04 0.000000e+00 2.000000e+02 237 2 2 2 2 -1 -1 -1 
7.800000e+04 0.000000e+00 2.000000e+02 238 2 2 2 2 -1 -1 -1 
8.400000e+04 0.000000e+00 2.000000e+02 239 2 2 2 2 -1 -1 -1 
9.000000e+04 0.000000e+00 2.000000e+02 240 2 2 2 2 -1 -1 -1 
0.000000e+00 6.000000e+03 2.000000e+02 241 2 2 2 2 -1 -1 -1 
6.000000e+03 6.000000e+03 2.000000e+02 242 2 2 2 2 -1 -1 -1 
1.200000e+04 6.000000e+03 2.000000e+02 243 2 2 2 2 -1 -1 -1 
1.800000e+04 6.000000e+03 2.000000e+02 244 2 2 2 2 -1 -1 -1 
2.400000e+04 6.000000e+03 2.000000e+02 245 2 2 2 2 -1 -1 -1 
3.000000e+04 6.000000e+03 2.000000e+02 246 2 2 2 2 -1 -1 -1 
3.600000e+04 6.000000e+03 2.000000e+02 247 2 2 2 2 -1 -1 -1 
4.200000e+04 6.000000e+03 2.000000e+02 248 2 2 2 2 -1 -1 -1 
4.800000e+04 6.000000e+03 2.000000e+02 249 2 2 2 2 -1 -1 -1 
5.400000e+04 6.000000e+03 2.000000e+02 250 2 2 2 2 -1 -1 -1 
6.000000e+04 6.000000e+03 2.000000e+02 251 2 2 2 2 -1 -1 -1 
6.600000e+04 6.000000e+03 2.000000e+02 252 2 2 2 2 -1 -1 -1 
7.200000e+04 6.000000e+03 2.000000e+02 253 2 2 2 2 -1 -1 -1 
7.800000e+04 6.000000e+03 2.000000e+02 254 2 2 2 2 -1 -1 -1 
8.400000e+04 6.000000e+03 2.000000e+02 255 2 2 2 2 -1 -1 -1 
9.000000e+04 6.000000e+03 2.000000e+02 256 2 2 2 2 -1 -1 -1 
0.000000e+00 1.200000e+04 2.000000e+02 257 2 2 2 2 -1 -1 -1 
6.000000e+03 1.200000e+04 2.000000e+02 258 2 2 2 2 -1 -1 -1 
1.200000e+04 1.200000e+04 2.000000e+02 259 2 2 2 2 -1 -1 -1 
1.800000e+04 1.200000e+04 2.000000e+02 260 2 2 2 2 -1 -1 -1 
2.400000e+04 1.200000e+04 2.000000e+02 261 2 2 2 2 -1 -1 -1 
3.000000e+04 1.200000e+04 2.000000e+02 262 2 2 2 2 -1 -1 -1 
3.600000e+04 1.200000e+04 2.000000e+02 263 2 2 2 2 -1 -1 -1 
4.200000e+04 1.200000e+04 2.000000e+02 264 2 2 2 2 -1 -1 -1 
4.800000e+04 1.200000e+04 2.000000e+02 265 2 2 2 2 -1 -1 -1 
5.400000e+04 1.200000e+04 2.000000e+02 266 2 2 2 2 -1 -1 -1 
6.000000e+04 1.200000e+04 2.000000e+02 267 2 2 2 2 -1 -1 -1 
6.600000e+04 1.200000e+04 2.000000e+02 268 2 2 2 2 -1 -1 -1 
7.200000e+04 1.200000e+04 2.000000e+02 269 2 2 2 2 -1 -1 -1 
7.800000e+04 1.200000e+04 2.000000e+02 270 2 2 2 2 -1 -1 -1 
8.400000e+04 1.200000e+04 2.000000e+02 271 2 2 2 2 -1 -1 -1 
9.000000e+04 1.200000e+04 2.000000e+02 272 2 2 2 2 -1 -1 -1 
0.000000e+00 1.800000e+04 2.000000e+02 273 2 2 2 2 -1 -1 -1 
6.000000e+03 1.800000e+04 2.000000e+02 274 2 2 2 2 -1 -1 -1 
1.200000e+04 1.800000e+04 2.000000e+02 275 2 2 2 2 -1 -1 -1 
1.800000e+04 1.800000e+04 2.000000e+02 276 2 2 2 2 -1 -1 -1 
2.400000e+04 1.800000e+04 2.000000e+02 277 2 2 2 2 -1 -1 -1 
3.000000e+04 1.800000e+04 2.000000e+02 278 2 2 2 2 -1 -1 -1 
3.600000e+04 1.800000e+04 2.000000e+02 279 2 2 2 2 -1 -1 -1 
4.200000e+04 1.800000e+04 2.000000e+02 280 2 2 2 2 -1 -1 -1 
4.800000e+04 1.800000e+04 2.000000e+02 281 2 2 2 2 -1 -1 -1 
5.400000e+04 1.800000e+04 2.000000e+02 282 2 2 2 2 -1 -1 -1 
6.000000e+04 1.800000e+04 2.000000e+02 283 2 2 2 2 -1 -1 -1 
6.600000e+04 1.800000e+04 2.000000e+02 284 2 2 2 2 -1 -1 -1 
7.200000e+04 1.800000e+04 2.000000e+02 285 2 2 2 2 -1 -1 -1 
7.800000e+04 1.800000e+04 2.000000e+02 286 2 2 2 2 -1 -1 -1 
8.400000e+04 1.800000e+04 2.000000e+02 287 2 2 2 2 -1 -1 -1 
9.000000e+04 1.800000e+04 2.000000e+02 288 2 2 2 2 -1 -1 -1 
0.000000e+00 2.400000e+04 2.000000e+02 289 2 2 2 2 -1 -1 -1 
6.000000e+03 2.400000e+04 2.000000e+02 290 2 2 2 2 -1 -1 -1 
1.200000e+04 2.400000e+04 2.000000e+02 291 2 2 2 2 -1 -1 -1 
1.800000e+04 2.400000e+04 2.000000e+02 292 2 2 2 2 -1 -1 -1 
2.400000e+04 2.400000e+04 2.000000e+02 293 2 2 2 2 -1 -1 -1 
3.000000e+04 2.400000e+04 2.000000e+02 294 2 2 2 2 -1 -1 -1 
3.600000e+04 2.400000e+04 2.000000e+02 295 2 2 2 2 -1 -1 -1 
4.200000e+04 2.400000e+04 2.000000e+02 296 2 2 2 2 -1 -1 -1 
4.800000e+04 2.400000e+04 2.000000e+02 297 2 2 2 2 -1 -1 -1 
5.400000e+04 2.400000e+04 2.000000e+02 298 2 2 2 2 -1 -1 -1 
6.000000e+04 2.400000e+04 2.000000e+02 299 2 2 2 2 -1 -1 -1 
6.600000e+04 2.400000e+04 2.000000e+02 300 2 2 2 2 -1 -1 -1 
7.200000e+04 2.400000e+04 2.000000e+02 301 2 2 2 2 -1 -1 -1 
7.800000e+04 2.400000e+04 2.000000e+02 302 2 2 2 2 -1 -1 -1 
8.400000e+04 2.400000e+04 2.000000e+02 303 2 2 2 2 -1 -1 -1 
9.000000e+04 2.400000e+04 2.000000e+02 304 2 2 2 2 -1 -1 -1 
0.000000e+00 3.000000e+04 2.000000e+02 305 2 2 2 2 -1 -1 -1 
6.000000e+03 3.000000e+04 2.000000e+02 306 2 2 2 2 -1 -1 -1 
1.200000e+04 3.000000e+04 2.000000e+02 307 2 2 2 2 -1 -1 -1 
1.800000e+04 3.000000e+04 2.000000e+02 308 2 2 2 2 -1 -1 -1 
2.400000e+04 3.000000e+04 2.000000e+02 309 2 2 2 2 -1 -1 -1 
3.000000e+04 3.000000e+04 2.000000e+02 310 2 2 2 2 -1 -1 -1 
3.600000e+04 3.000000e+04 2.000000e+02 311 2 2 2 2 -1 -1 -1 
4.200000e+04 3.000000e+04 2.000000e+02 312 2 2 2 2 -1 -1 -1 
4.800000e+04 3.000000e+04 2.000000e+02 313 2 2 2 2 -1 -1 -1 
5.400000e+04 3.000000e+04 2.000000e+02 314 2 2 2 2 -1 -1 -1 
6.000000e+04 3.000000e+04 2.000000e+02 315 2 2 2 2 -1 -1 -1 
6.600000e+04 3.000000e+04 2.000000e+02 316 2 2 2 2 -1 -1 -1 
7.200000e+04 3.000000e+04 2.000000e+02 317 2 2 2 2 -1 -1 -1 
7.800000e+04 3.000000e+04 2.000000e+02 318 2 2 2 2 -1 -1 -1 
8.400000e+04 3.000000e+04 2.000000e+02 319 2 2 2 2 -1 -1 -1 
9.000000e+04 3.000000e+04 2.000000e+02 320 2 2 2 2 -1 -1 -1 
0.000000e+00 3.600000e+04 2.000000e+02 321 2 2 2 2 -1 -1 -1 
6.000000e+03 3.600000e+04 2.000000e+02 322 2 2 2 2 -1 -1 -1 
1.200000e+04 3.600000e+04 2.000000e+02 323 2 2 2 2 -1 -1 -1 
1.800000e+04 3.600000e+04 2.000000e+02 324 2 2 2 2 -1 -1 -1 
2.400000e+04 3.600000e+04 2.000000e+02 325 2 2 2 2 -1 -1 -1 
3.000000e+04 3.600000e+04 2.000000e+02 326 2 2 2 2 -1 -1 -1 
3.600000e+04 3.600000e+04 2.000000e+02 327 2 2 2 2 -1 -1 -1 
4.200000e+04 3.600000e+04 2.000000e+02 328 2 2 2 2 -1 -1 -1 
4.800000e+04 3.600000e+04 2.000000e+02 329 2 2 2 2 -1 -1 -1 
5.400000e+04 3.600000e+04 2.000000e+02 330 2 2 2 2 -1 -1 -1 
6.000000e+04 3.600000e+04 2.000000e+02 331 2 2 2 2 -1 -1 -1 
6.600000e+04 3.600000e+04 2.000000e+02 332 2 2 2 2 -1 -1 -1 
7.200000e+04 3.600000e+04 2.000000e+02 333 2 2 2 2 -1 -1 -1 
7.800000e+04 3.600000e+04 2.000000e+02 334 2 2 2 2 -1 -1 -1 
8.400000e+04 3.600000e+04 2.000000e+02 335 2 2 2 2 -1 -1 -1 
9.000000e+04 3.600000e+04 2.000000e+02 336 2 2 2 2 -1 -1 -1 
0.000000e+00 4.200000e+04 2.000000e+02 337 2 2 2 2 -1 -1 -1 
6.000000e+03 4.200000e+04 2.000000e+02 338 2 2 2 2 -1 -1 -1 
1.200000e+04 4.200000e+04 2.000000e+02 339 2 2 2 2 -1 -1 -1 
1.800000e+04 4.200000e+04 2.000000e+02 340 2 2 2 2 -1 -1 -1 
2.400000e+04 4.200000e+04 2.000000e+02 341 2 2 2 2 -1 -1 -1 
3.000000e+04 4.200000e+04 2.000000e+02 342 2 2 2 2 -1 -1 -1 
3.600000e+04 4.200000e+04 2.000000e+02 343 2 2 2 2 -1 -1 -1 
4.200000e+04 4.200000e+04 2.000000e+02 344 2 2 2 2 -1 -1 -1 
4.800000e+04 4.200000e+04 2.000000e+02 345 2 2 2 2 -1 -1 -1 
5.400000e+04 4.200000e+04 2.000000e+02 346 2 2 2 2 -1 -1 -1 
6.000000e+04 4.200000e+04 2.000000e+02 347 2 2 2 2 -1 -1 -1 
6.600000e+04 4.200000e+04 2.000000e+02 348 2 2 2 2 -1 -1 -1 
7.200000e+04 4.200000e+04 2.000000e+02 349 2 2 2 2 -1 -1 -1 
7.800000e+04 4.200000e+04 2.000000e+02 350 2 2 2 2 -1 -1 -1 
8.400000e+04 4.200000e+04 2.000000e+02 351 2 2 2 2 -1 -1 -1 
9.000000e+04 4.200000e+04 2.000000e+02 352 2 2 2 2 -1 -1 -1 
0.000000e+00 4.800000e+04 2.000000e+02 353 2 2 2 2 -1 -1 -1 
6.000000e+03 4.800000e+04 2.000000e+02 354 2 2 2 2 -1 -1 -1 
1.200000e+04 4.800000e+04 2.000000e+02 355 2 2 2 2 -1 -1 -1 
1.800000e+04 4.800000e+04 2.000000e+02 356 2 2 2 2 -1 -1 -1 
2.400000e+04 4.800000e+04 2.000000e+02 357 2 2 2 2 -1 -1 -1 
3.000000e+04 4.800000e+04 2.000000e+02 358 2 2 2 2 -1 -1 -1 
3.600000e+04 4.800000e+04 2.000000e+02 359 2 2 2 2 -1 -1 -1 
4.200000e+04 4.800000e+04 2.000000e+02 360 2 2 2 2 -1 -1 -1 
4.800000e+04 4.800000e+04 2.000000e+02 361 2 2 2 2 -1 -1 -1 
5.400000e+04 4.800000e+04 2.000000e+02 362 2 2 2 2 -1 -1 -1 
6.000000e+04 4.800000e+04 2.000000e+02 363 2 2 2 2 -1 -1 -1 
6.600000e+04 4.800000e+04 2.000000e+02 364 2 2 2 2 -1 -1 -1 
7.200000e+04 4.800000e+04 2.000000e+02 365 2 2 2 2 -1 -1 -1 
7.800000e+04 4.800000e+04 2.000000e+02 366 2 2 2 2 -1 -1 -1 
8.400000e+04 4.800000e+04 2.000000e+02 367 2 2 2 2 -1 -1 -1 
9.000000e+04 4.800000e+04 2.000000e+02 368 2 2 2 2 -1 -1 -1 
0.000000e+00 0.000000e+00 3.000000e+02 369 2 2 2 2 -1 -1 -1 
6.000000e+03 0.000000e+00 3.000000e+02 370 2 2 2 2 -1 -1 -1 
1.200000e+04 0.000000e+00 3.000000e+02 371 2 2 2 2 -1 -1 -1 
1.800000e+04 0.000000e+00 3.000000e+02 372 2 2 2 2 -1 -1 -1 
2.400000e+04 0.000000e+00 3.000000e+02 373 2 2 2 2 -1 -1 -1 
3.000000e+04 0.000000e+00 3.000000e+02 374 2 2 2 2 -1 -1 -1 
3.600000e+04 0.000000e+00 3.000000e+02 375 2 2 2 2 -1 -1 -1 
4.200000e+04 0.000000e+00 3.000000e+02 376 2 2 2 2 -1 -1 -1 
4.800000e+04 0.000000e+00 3.000000e+02 377 2 2 2 2 -1 -1 -1 
5.400000e+04 0.000000e+00 3.000000e+02 378 2 2 2 2 -1 -1 -1 
6.000000e+04 0.000000e+00 3.000000e+02 379 2 2 2 2 -1 -1 -1 
6.600000e+04 0.000000e+00 3.000000e+02 380 2 2 2 2 -1 -1 -1 
7.200000e+04 0.000000e+00 3.000000e+02 381 2 2 2 2 -1 -1 -1 
7.800000e+04 0.000000e+00 3.000000e+02 382 2 2 2 2 -1 -1 -1 
8.400000e+04 0.000000e+00 3.000000e+02 383 2 2 2 2 -1 -1 -1 
9.000000e+04 0.000000e+00 3.000000e+02 384 2 2 2 2 -1 -1 -1 
0.000000e+00 6.000000e+03 3.000000e+02 385 2 2 2 2 -1 -1 -1 
6.000000e+03 6.000000e+03 3.000000e+02 386 2 2 2 2 -1 -1 -1 
1.200000e+04 6.000000e+03 3.000000e+02 387 2 2 2 2 -1 -1 -1 
1.800000e+04 6.000000e+03 3.000000e+02 388 2 2 2 2 -1 -1 -1 
2.400000e+04 6.000000e+03 3.000000e+02 389 2 2 2 2 -1 -1 -1 
3.000000e+04 6.000000e+03 3.000000e+02 390 2 2 2 2 -1 -1 -1 
3.600000e+04 6.000000e+03 3.000000e+02 391 2 2 2 2 -1 -1 -1 
4.200000e+04 6.000000e+03 3.000000e+02 392 2 2 2 2 -1 -1 -1 
4.800000e+04 6.000000e+03 3.000000e+02 393 2 2 2 2 -1 -1 -1 
5.400000e+04 6.000000e+03 3.000000e+02 394 2 2 2 2 -1 -1 -1 
6.000000e+04 6.000000e+03 3.000000e+02 395 2 2 2 2 -1 -1 -1 
6.600000e+04 6.000000e+03 3.000000e+02 396 2 2 2 2 -1 -1 -1 
7.200000e+04 6.000000e+03 3.000000e+02 397 2 2 2 2 -1 -1 -1 
7.800000e+04 6.000000e+03 3.000000e+02 398 2 2 2 2 -1 -1 -1 
8.400000e+04 6.000000e+03 3.000000e+02 399 2 2 2 2 -1 -1 -1 
9.000000e+04 6.000000e+03 3.000000e+02 400 2 2 2 2 -1 -1 -1 
0.000000e+00 1.200000e+04 3.000000e+02 401 2 2 2 2 -1 -1 -1 
6.000000e+03 1.200000e+04 3.000000e+02 402 2 2 2 2 -1 -1 -1 
1.200000e+04 1.200000e+04 3.000000e+02 403 2 2 2 2 -1 -1 -1 
1.800000e+04 1.200000e+04 3.000000e+02 404 2 2 2 2 -1 -1 -1 
2.400000e+04 1.200000e+04 3.000000e+02 405 2 2 2 2 -1 -1 -1 
3.000000e+04 1.200000e+04 3.000000e+02 406 2 2 2 2 -1 -1 -1 
3.600000e+04 1.200000e+04 3.000000e+02 407 2 2 2 2 -1 -1 -1 
4.200000e+04 1.200000e+04 3.000000e+02 408 2 2 2 2 -1 -1 -1 
4.800000e+04 1.200000e+04 3.000000e+02 409 2 2 2 2 -1 -1 -1 
5.400000e+04 1.200000e+04 3.000000e+02 410 2 2 2 2 -1 -1 -1 
6.000000e+04 1.200000e+04 3.000000e+02 411 2 2 2 2 -1 -1 -1 
6.600000e+04 1.200000e+04 3.000000e+02 412 2 2 2 2 -1 -1 -1 
7.200000e+04 1.200000e+04 3.000000e+02 413 2 2 2 2 -1 -1 -1 
7.800000e+04 1.200000e+04 3.000000e+02 414 2 2 2 2 -1 -1 -1 
8.400000e+04 1.200000e+04 3.000000e+02 415 2 2 2 2 -1 -1 -1 
9.000000e+04 1.200000e+04 3.000000e+02 416 2 2 2 2 -1 -1 -1 
0.000000e+00 1.800000e+04 3.000000e+02 417 2 2 2 2 -1 -1 -1 
6.000000e+03 1.800000e+04 3.000000e+02 418 2 2 2 2 -1 -1 -1 
1.200000e+04 1.800000e+04 3.000000e+02 419 2 2 2 2 -1 -1 -1 
1.800000e+04 1.800000e+04 3.000000e+02 420 2 2 2 2 -1 -1 -1 
2.400000e+04 1.800000e+04 3.000000e+02 421 2 2 2 2 -1 -1 -1 
3.000000e+04 1.800000e+04 3.000000e+02 422 2 2 2 2 -1 -1 -1 
3.600000e+04 1.800000e+04 3.000000e+02 423 2 2 2 2 -1 -1 -1 
4.200000e+04 1.800000e+04 3.000000e+02 424 2 2 2 2 -1 -1 -1 
4.800000e+04 1.800000e+04 3.000000e+02 425 2 2 2 2 -1 -1 -1 
5.400000e+04 1.800000e+04 3.000000e+02 426 2 2 2 2 -1 -1 -1 
6.000000e+04 1.800000e+04 3.000000e+02 427 2 2 2 2 -1 -1 -1 
6.600000e+04 1.800000e+04 3.000000e+02 428 2 2 2 2 -1 -1 -1 
7.200000e+04 1.800000e+04 3.000000e+02 429 2 2 2 2 -1 -1 -1 
7.800000e+04 1.800000e+04 3.000000e+02 430 2 2 2 2 -1 -1 -1 
8.400000e+04 1.800000e+04 3.000000e+02 431 2 2 2 2 -1 -1 -1 
9.000000e+04 1.800000e+04 3.000000e+02 432 2 2 2 2 -1 -1 -1 
0.000000e+00 2.400000e+04 3.000000e+02 433 2 2 2 2 -1 -1 -1 
6.000000e+03 2.400000e+04 3.000000e+02 434 2 2 2 2 -1 -1 -1 
1.200000e+04 2.400000e+04 3.000000e+02 435 2 2 2 2 -1 -1 -1 
1.800000e+04 2.400000e+04 3.000000e+02 436 2 2 2 2 -1 -1 -1 
2.400000e+04 2.400000e+04 3.000000e+02 437 2 2 2 2 -1 -1 -1 
3.000000e+04 2.400000e+04 3.000000e+02 438 2 2 2 2 -1 -1 -1 
3.600000e+04 2.400000e+04 3.000000e+02 439 2 2 2 2 -1 -1 -1 
4.200000e+04 2.400000e+04 3.000000e+02 440 2 2 2 2 -1 -1 -1 
4.800000e+04 2.400000e+04 3.000000e+02 441 2 2 2 2 -1 -1 -1 
5.400000e+04 2.400000e+04 3.000000e+02 442 2 2 2 2 -1 -1 -1 
6.000000e+04 2.400000e+04 3.000000e+02 443 2 2 2 2 -1 -1 -1 
6.600000e+04 2.400000e+04 3.000000e+02 444 2 2 2 2 -1 -1 -1 
7.200000e+04 2.400000e+04 3.000000e+02 445 2 2 2 2 -1 -1 -1 
7.800000e+04 2.400000e+04 3.000000e+02 446 2 2 2 2 -1 -1 -1 
8.400000e+04 2.400000e+04 3.000000e+02 447 2 2 2 2 -1 -1 -1 
9.000000e+04 2.400000e+04 3.000000e+02 448 2 2 2 2 -1 -1 -1 
0.000000e+00 3.000000e+04 3.000000e+02 449 2 2 2 2 -1 -1 -1 
6.000000e+03 3.000000e+04 3.000000e+02 450 2 2 2 2 -1 -1 -1 
1.200000e+04 3.000000e+04 3.000000e+02 451 2 2 2 2 -1 -1 -1 
1.800000e+04 3.000000e+04 3.000000e+02 452 2 2 2 2 -1 -1 -1 
2.400000e+04 3.000000e+04 3.000000e+02 453 2 2 2 2 -1 -1 -1 
3.000000e+04 3.000000e+04 3.000000e+02 454 2 2 2 2 -1 -1 -1 
3.600000e+04 3.000000e+04 3.000000e+02 455 2 2 2 2 -1 -1 -1 
4.200000e+04 3.000000e+04 3.000000e+02 456 2 2 2 2 -1 -1 -1 
4.800000e+04 3.000000e+04 3.000000e+02 457 2 2 2 2 -1 -1 -1 
5.400000e+04 3.000000e+04 3.000000e+02 458 2 2 2 2 -1 -1 -1 
6.000000e+04 3.000000e+04 3.000000e+02 459 2 2 2 2 -1 -1 -1 
6.600000e+04 3.000000e+04 3.000000e+02 460 2 2 2 2 -1 -1 -1 
7.200000e+04 3.000000e+04 3.000000e+02 461 2 2 2 2 -1 -1 -1 
7.800000e+04 3.000000e+04 3.000000e+02 462 2 2 2 2 -1 -1 -1 
8.400000e+04 3.000000e+04 3.000000e+02 463 2 2 2 2 -1 -1 -1 
9.000000e+04 3.000000e+04 3.000000e+02 464 2 2 2 2 -1 -1 -1 
0.000000e+00 3.600000e+04 3.000000e+02 465 2 2 2 2 -1 -1 -1 
6.000000e+03 3.600000e+04 3.000000e+02 466 2 2 2 2 -1 -1 -1 
1.200000e+04 3.600000e+04 3.000000e+02 467 2 2 2 2 -1 -1 -1 
1.800000e+04 3.600000e+04 3.000000e+02 468 2 2 2 2 -1 -1 -1 
2.400000e+04 3.600000e+04 3.000000e+02 469 2 2 2 2 -1 -1 -1 
3.000000e+04 3.600000e+04 3.000000e+02 470 2 2 2 2 -1 -1 -1 
3.600000e+04 3.600000e+04 3.000000e+02 471 2 2 2 2 -1 -1 -1 
4.200000e+04 3.600000e+04 3.000000e+02 472 2 2 2 2 -1 -1 -1 
4.800000e+04 3.600000e+04 3.000000e+02 473 2 2 2 2 -1 -1 -1 
5.400000e+04 3.600000e+04 3.000000e+02 474 2 2 2 2 -1 -1 -1 
6.000000e+04 3.600000e+04 3.000000e+02 475 2 2 2 2 -1 -1 -1 
6.600000e+04 3.600000e+04 3.000000e+02 476 2 2 2 2 -1 -1 -1 
7.200000e+04 3.600000e+04 3.000000e+02 477 2 2 2 2 -1 -1 -1 
7.800000e+04 3.600000e+04 3.000000e+02 478 2 2 2 2 -1 -1 -1 
8.400000e+04 3.600000e+04 3.000000e+02 479 2 2 2 2 -1 -1 -1 
9.000000e+04 3.600000e+04 3.000000e+02 480 2 2 2 2 -1 -1 -1 
0.000000e+00 4.200000e+04 3.000000e+02 481 2 2 2 2 -1 -1 -1 
6.000000e+03 4.200000e+04 3.000000e+02 482 2 2 2 2 -1 -1 -1 
1.200000e+04 4.200000e+04 3.000000e+02 483 2 2 2 2 -1 -1 -1 
1.800000e+04 4.200000e+04 3.000000e+02 484 2 2 2 2 -1 -1 -1 
2.400000e+04 4.200000e+04 3.000000e+02 485 2 2 2 2 -1 -1 -1 
3.000000e+04 4.200000e+04 3.000000e+02 486 2 2 2 2 -1 -1 -1 
3.600000e+04 4.200000e+04 3.000000e+02 487 2 2 2 2 -1 -1 -1 
4.200000e+04 4.200000e+04 3.000000e+02 488 2 2 2 2 -1 -1 -1 
4.800000e+04 4.200000e+04 3.000000e+02 489 2 2 2 2 -1 -1 -1 
5.400000e+04 4.200000e+04 3.000000e+02 490 2 2 2 2 -1 -1 -1 