#PHAST restart file
#Prefix: ex4_start_time
#Date: Thu Aug 30 11:50:12 2007
#Current model time: 150000
#nx, ny, nz: 16, 9, 5
SOLUTION_RAW       -2 
  -temp              25
  -pH                7
  -pe                4
  -mu                1e-07
  -ah2o              1
  -total_h           111.01974134192
  -total_o           55.535325076996
  -cb                0.0012883279473439
  -mass_water        1
  -total_alkalinity  0
  -totals
    As   4.1908616387069e-07
    C   0.0096003939798442
    Ca   9.3009440332783e-05
    Cl   0.0032689522220291
    Mg   6.6514137243683e-05
    Na   0.01444565173261
    S   0.00023718575024482
  -activities
    As   -8.3776966771614
    C(-4)   -4.0177109440686
    C(4)   -4.0177109440686
    Ca   -6.0314729689045
    Cl   -4.4855914268839
    Mg   -6.1770860377888
    Na   -3.8402628596702
    S(-2)   -5.6249114062687
    S(6)   -5.6249114062687
  -gammas
  -Isotopes
SOLUTION_RAW       0 
  -temp              25
  -pH                6.7019757081564
  -pe                13.906386037562
  -mu                0.15187745272531
  -ah2o              0.99493902966542
  -total_h           111.04496069746
  -total_o           55.591992995033
  -cb                0.027064642779481
  -mass_water        1.0000973948971
  -total_alkalinity  0.021772332276688
  -totals
    As   1.2914646539186e-09
    C   0.028475057257879
    Ca   0.0028534334238268
    Cl   0.11279316124226
    Mg   0.0019985697624964
    Na   0.15254859008937
    S   0.00031122943605908
  -activities
    As   -13.82493596341
    C(-4)   -142.62895769708
    C(4)   -5.4357229145952
    Ca   -3.0441069605586
    Cl   -1.0825730675252
    Mg   -3.1744472102509
    Na   -0.93949417423224
    S(-2)   -142.0378302238
    S(6)   -4.1277747704507
  -gammas
  -Isotopes
SOLUTION_RAW       1 
  -temp              25
  -pH                7.6918752837919
  -pe                12.914058647071
  -mu                0.036976817453721
  -ah2o              0.99876113715849
  -total_h           111.02544318748
  -total_o           55.550882446798
  -cb                0.0070665769525889
  -mass_water        0.99998954340941
  -total_alkalinity  0.014332063830251
  -totals
    As   1.8710359958487e-08
    C   0.014784505696999
    Ca   0.00026878006997182
    Cl   0.018248531728739
    Mg   0.00019314115941482
    Na   0.03921797430614
    S   0.00024731277148723
  -activities
    As   -14.262826460633
    C(-4)   -143.72502285212
    C(4)   -4.5664159495244
    Ca   -3.9134139256295
    Cl   -1.8184249558769
    Mg   -4.0437541753218
    Na   -1.4847747214573
    S(-2)   -142.84276627163
    S(6)   -3.9555730774458
  -gammas
  -Isotopes
SOLUTION_RAW       2 
  -temp              25
  -pH                8.4576856145051
  -pe                12.147740235355
  -mu                0.015207989182659
  -ah2o              0.99950181823095
  -total_h           111.0200412817
  -total_o           55.536318306814
  -cb                0.0015903164134858
  -mass_water        0.99998165416693
  -total_alkalinity  0.010093307160965
  -totals
    As   3.6986051136457e-07
    C   0.0099316387733825
    Ca   5.648270548909e-05
    Cl   0.0034869870320329
    Mg   3.9670299314829e-05
    Na   0.015453340946935
    S   0.00023733324477399
  -activities
    As   -14.37182637889
    C(-4)   -144.62890996857
    C(4)   -3.9417811844707
    Ca   -4.5380486906831
    Cl   -2.5123257004203
    Mg   -4.6683889403755
    Na   -1.8669330311436
    S(-2)   -143.50732440946
    S(6)   -3.8570976730739
  -gammas
  -Isotopes
SOLUTION_RAW       3 
  -temp              25
  -pH                8.6951643517889
  -pe                11.910155855035
  -mu                0.010868583777408
  -ah2o              0.99965298526213
  -total_h           111.01874083354
  -total_o           55.532730106995
  -cb                0.00027453325602355
  -mass_water        0.99998113805212
  -total_alkalinity  0.0090138885641439
  -totals
    As   9.7463548706583e-07
    C   0.0087351520640694
    Ca   3.6733888058303e-05
    Cl   0.00080560661097633
    Mg   2.5269153651393e-05
    Na   0.010442038044883
    S   0.00023552053083566
  -activities
    As   -14.394074404711
    C(-4)   -144.91814356711
    C(4)   -3.7567053752748
    Ca   -4.723124499879
    Cl   -3.1411217262659
    Mg   -4.8534647495714
    Na   -2.0304757858313
    S(-2)   -143.71342081274
    S(6)   -3.8262976884587
  -gammas
  -Isotopes
SOLUTION_RAW       4 
  -temp              25
  -pH                8.570328729297
  -pe                12.034957072473
  -mu                0.0095631139660612
  -ah2o              0.99969423526335
  -total_h           111.01839837573
  -total_o           55.531389706863
  -cb                -6.9563508008524e-05
  -mass_water        0.99998136011721
  -total_alkalinity  0.0084656579477046
  -totals
    As   5.6933790407081e-07
    C   0.0082889504151206
    Ca   4.7797830401794e-05
    Cl   0.00026350178905648
    Mg   3.3425032068018e-05
    Na   0.0089680280024383
    S   0.00023515408036064
  -activities
    As   -14.369535267256
    C(-4)   -144.80984246674
    C(4)   -3.8982970228127
    Ca   -4.5815328523411
    Cl   -3.6238389919643
    Mg   -4.7118731020334
    Na   -2.0936599048451
    S(-2)   -143.57839905351
    S(6)   -3.8163151476083
  -gammas
  -Isotopes
SOLUTION_RAW       5 
  -temp              25
  -pH                8.0214020532003
  -pe                12.583862190055
  -mu                0.0088576534087489
  -ah2o              0.99971827819184
  -total_h           111.01832666035
  -total_o           55.530388378304
  -cb                -0.00014034354920664
  -mass_water        0.99998332659405
  -total_alkalinity  0.0078707239212162
  -totals
    As   5.4519563551625e-08
    C   0.0079558706216298
    Ca   0.00015813041598008
    Cl   0.00015034097443541
    Mg   0.00011460547553658
    Na   0.0078054592864194
    S   0.00023507760172211
  -activities
    As   -14.303538552221
    C(-4)   -144.27561910183
    C(4)   -4.4620680632664
    Ca   -4.0177618118875
    Cl   -3.8660377879007
    Mg   -4.1481020615798
    Na   -2.1517468353064
    S(-2)   -143.02981224468
    S(6)   -3.816785601274
  -gammas
  -Isotopes
SOLUTION_RAW       6 
  -temp              25
  -pH                8.0279264075633
  -pe                12.577337295952
  -mu                0.0088356370369315
  -ah2o              0.99971892474178
  -total_h           111.01831724118
  -total_o           55.530369243223
  -cb                -0.00014983228003345
  -mass_water        0.99998328532085
  -total_alkalinity  0.00786744535536
  -totals
    As   5.5971760454953e-08
    C   0.0079494907371867
    Ca   0.00015587003913669
    Cl   0.00013877531490428
    Mg   0.00011294445905074
    Na   0.0077889548753833
    S   0.00023506975488342
  -activities
    As   -14.304602714115
    C(-4)   -144.28235277788
    C(4)   -4.4557565616369
    Ca   -4.0240733135169
    Cl   -3.9007546925559
    Mg   -4.1544135632093
    Na   -2.1526242556352
    S(-2)   -143.03600805922
    S(6)   -3.8164603280188
  -gammas
  -Isotopes
SOLUTION_RAW       7 
  -temp              25
  -pH                8.1193318163689
  -pe                12.485933695543
  -mu                0.0088812038695782
  -ah2o              0.99971614178475
  -total_h           111.01831415414
  -total_o           55.530483743663
  -cb                -0.00015300991890265
  -mass_water        0.99998279110373
  -total_alkalinity  0.0079468581821851
  -totals
    As   8.2510535143736e-08
    C   0.0079876219567945
    Ca   0.00012667508932737
    Cl   0.00013710106576937
    Mg   9.1463403014613e-05
    Na   0.0079648920873689
    S   0.00023506861623294
  -activities
    As   -14.314326786809
    C(-4)   -144.37084295483
    C(4)   -4.3614250163828
    Ca   -4.118404858771
    Cl   -3.9061255819891
    Mg   -4.2487451084634
    Na   -2.1430971466705
    S(-2)   -143.12608332126
    S(6)   -3.8151204661683
  -gammas
  -Isotopes
SOLUTION_RAW       8 
  -temp              25
  -pH                7.6920448108724
  -pe                12.913211687681
  -mu                0.008694421337513
  -ah2o              0.99973463766426
  -total_h           111.01831733237
  -total_o           55.529797048806
  -cb                -0.00014964188449212
  -mass_water        0.99998615148829
  -total_alkalinity  0.0074859444255536
  -totals
    As   1.3701657611897e-08
    C   0.0077588154902768
    Ca   0.00034386179830286
    Cl   0.00013419124633204
    Mg   0.00025128694077451
    Na   0.0067503432986489
    S   0.00023506664387627
  -activities
    As   -14.272203359584
    C(-4)   -143.96524502343
    C(4)   -4.8104492665875
    Ca   -3.6693806085663
    Cl   -3.9150329725842
    Mg   -3.7997208582586
    Na   -2.2142554405078
    S(-2)   -142.70997683852
    S(6)   -3.8263411537998
  -gammas
  -Isotopes
SOLUTION_RAW       9 
  -temp              25
  -pH                6.730337289627
  -pe                13.877868063375
  -mu                0.14432889448665
  -ah2o              0.99518880963946
  -total_h           111.04375212904
  -total_o           55.58967056467
  -cb                0.025822970300677
  -mass_water        1.000089301585
  -total_alkalinity  0.021463389015761
  -totals
    As   1.3400552330924e-09
    C   0.027701681853507
    Ca   0.0026561358201554
    Cl   0.10640837731734
    Mg   0.0018636134952896
    Na   0.14526906544368
    S   0.00030691305036875
  -activities
    As   -13.849357006814
    C(-4)   -142.65968335096
    C(4)   -5.4106494994216
    Ca   -3.0691803757322
    Cl   -1.1055879458446
    Mg   -3.1995206254245
    Na   -0.95908556961367
    S(-2)   -142.05998467382
    S(6)   -4.1223827185003
  -gammas
  -Isotopes
SOLUTION_RAW       10 
  -temp              25
  -pH                7.7215981483537
  -pe                12.88429957048
  -mu                0.035454893495158
  -ah2o              0.99881279837924
  -total_h           111.02502397631
  -total_o           55.549753748245
  -cb                0.0066424636479603
  -mass_water        0.99998876594589
  -total_alkalinity  0.014003400983198
  -totals
    As   2.0814014101983e-08
    C   0.014408413976463
    Ca   0.00025367456972582
    Cl   0.017273498292393
    Mg   0.00018231186206386
    Na   0.037540718111148
    S   0.00024665361858089
  -activities
    As   -14.268683423045
    C(-4)   -143.76341287326
    C(4)   -4.5455825519368
    Ca   -3.934247323217
    Cl   -1.8409237207717
    Mg   -4.0645875729094
    Na   -1.5025400676125
    S(-2)   -142.86711557801
    S(6)   -3.9503993701783
  -gammas
  -Isotopes
SOLUTION_RAW       11 
  -temp              25
  -pH                8.4496076941834
  -pe                12.155812618802
  -mu                0.01500360556534
  -ah2o              0.99950861368496
  -total_h           111.01996833584
  -total_o           55.536076409443
  -cb                0.0015169811890627
  -mass_water        0.999981672658
  -total_alkalinity  0.010005389855256
  -totals
    As   3.5705172751615e-07
    C   0.009851030012845
    Ca   5.7656385524557e-05
    Cl   0.0034078279954861
    Mg   4.0535236342992e-05
    Na   0.015208732301568
    S   0.00023727972688542
  -activities
    As   -14.369938151142
    C(-4)   -144.62386442938
    C(4)   -3.9529269231424
    Ca   -4.5269029520115
    Cl   -2.52197629356
    Mg   -4.6572432017038
    Na   -1.8735298597147
    S(-2)   -143.4979535609
    S(6)   -3.8558372300047
  -gammas
  -Isotopes
SOLUTION_RAW       12 
  -temp              25
  -pH                8.6485393389395
  -pe                11.956776782735
  -mu                0.010729308084677
  -ah2o              0.99965650558605
  -total_h           111.01871803403
  -total_o           55.532551909847
  -cb                0.00025216665007996
  -mass_water        0.99998121658062
  -total_alkalinity  0.0089180847353117
  -totals
    As   8.0038804711603e-07
    C   0.0086759834794362
    Ca   4.0297382398544e-05
    Cl   0.00079222597542941
    Mg   2.7889159840012e-05
    Na   0.010297927600608
    S   0.00023551146810838
  -activities
    As   -14.385869342995
    C(-4)   -144.87284050951
    C(4)   -3.8046774169027
    Ca   -4.6751524582511
    Cl   -3.1481254252507
    Mg   -4.8054927079434
    Na   -2.036106770641
    S(-2)   -143.66585988107
    S(6)   -3.8253838039026
  -gammas
  -Isotopes
SOLUTION_RAW       13 
  -temp              25
  -pH                8.4147896878234
  -pe                12.19048973226
  -mu                0.0093516074497939
  -ah2o              0.99969963811008
  -total_h           111.01839172418
  -total_o           55.53111752819
  -cb                -7.5439141720783e-05
  -mass_water        0.99998171714054
  -total_alkalinity  0.0082910890879925
  -totals
    As   2.933472642132e-07
    C   0.0081985927427836
    Ca   6.6055472601923e-05
    Cl   0.00025404953163199
    Mg   4.6855055075538e-05
    Na   0.0087144671165712
    S   0.00023514767337913
  -activities
    As   -14.347824370491
    C(-4)   -144.65634519599
    C(4)   -4.0559217254444
    Ca   -4.4239081497094
    Cl   -3.6392593819779
    Mg   -4.5542483994018
    Na   -2.1053813221344
    S(-2)   -143.42209200659
    S(6)   -3.8155886415228
  -gammas
  -Isotopes
SOLUTION_RAW       14 
  -temp              25
  -pH                7.6428760228485
  -pe                12.962380519241
  -mu                0.0087222162172009
  -ah2o              0.99973646571928
  -total_h           111.01833472197
  -total_o           55.529738570101
  -cb                -0.0001321462569917
  -mass_water        0.99998676597418
  -total_alkalinity  0.0074294831551661
  -totals
    As   1.1235890963618e-08
    C   0.0077393274005698
    Ca   0.00038723620907496
    Cl   0.00014947249697813
    Mg   0.00028320025545502
    Na   0.006576101719143
    S   0.00023507700857976
  -activities
    As   -14.266522816565
    C(-4)   -143.91933549753
    C(4)   -4.8628745066104
    Ca   -3.6169553685434
    Cl   -3.8682575878287
    Mg   -3.7472956182358
    Na   -2.2256436584525
    S(-2)   -142.66357656339
    S(6)   -3.8291060597346
  -gammas
  -Isotopes
SOLUTION_RAW       15 
  -temp              25
  -pH                7.5927661042401
  -pe                13.012488722999
  -mu                0.0086891497693504
  -ah2o              0.99974095629
  -total_h           111.01832630165
  -total_o           55.52959358789
  -cb                -0.00014063052964054
  -mass_water        0.99998743640492
  -total_alkalinity  0.0073413150049641
  -totals
    As   9.1545579649142e-09
    C   0.0076910036295724
    Ca   0.00043836657820902
    Cl   0.00013662632006674
    Mg   0.00032083603890117
    Na   0.0062890513169082
    S   0.00023506830059015
  -activities
    As   -14.262086588377
    C(-4)   -143.87430387018
    C(4)   -4.9180706085268
    Ca   -3.561759266627
    Cl   -3.9072116778948
    Mg   -3.6920995163194
    Na   -2.2449261546387
    S(-2)   -142.61616397627
    S(6)   -3.8318093353449
  -gammas
  -Isotopes
SOLUTION_RAW       16 
  -temp              25
  -pH                7.5790977367643
  -pe                13.026156685406
  -mu                0.008683536035357
  -ah2o              0.99974215824866
  -total_h           111.01832455001
  -total_o           55.529553987128
  -cb                -0.00014239185747888
  -mass_water        0.99998763050533
  -total_alkalinity  0.0073166764217284
  -totals
    As   8.6581480621009e-09
    C   0.0076778037805003
    Ca   0.00045355424394921
    Cl   0.00013496282474367
    Mg   0.00033201496304132
    Na   0.0062082519684279
    S   0.00023506716763386
  -activities
    As   -14.260971951276
    C(-4)   -143.86208642953
    C(4)   -4.933191551198
    Ca   -3.5466383239558
    Cl   -3.9125195436979
    Mg   -3.6769785736482
    Na   -2.250521539178
    S(-2)   -142.6033287448
    S(6)   -3.8326435941297
  -gammas
  -Isotopes
SOLUTION_RAW       17 
  -temp              25
  -pH                7.4791814064622
  -pe                13.126071166616
  -mu                0.0086900841416133
  -ah2o              0.99975069689344
  -total_h           111.01832917207
  -total_o           55.529290701173
  -cb                -0.00013775791838651
  -mass_water        0.99998921850225
  -total_alkalinity  0.0071365315852685
  -totals
    As   5.8086933409766e-09
    C   0.0075900471946949
    Ca   0.00058299221169415
    Cl   0.00013389243278804
    Mg   0.00042727855411239
    Na   0.0055822632601169
    S   0.00023506644168333
  -activities
    As   -14.251305442971
    C(-4)   -143.7732002313
    C(4)   -5.0441420952959
    Ca   -3.4356877798579
    Cl   -3.9159928587601
    Mg   -3.5660280295503
    Na   -2.2966319718482
    S(-2)   -142.51091284199
    S(6)   -3.8401444861883
  -gammas
  -Isotopes
SOLUTION_RAW       18 
  -temp              25
  -pH                6.7939258290114
  -pe                13.81396786993
  -mu                0.12928049589016
  -ah2o              0.99568621261487
  -total_h           111.04137321942
  -total_o           55.585104046821
  -cb                0.023377722778648
  -mass_water        1.0000733387273
  -total_alkalinity  0.020859561879185
  -totals
    As   1.4741088222914e-09
    C   0.026181000688953
    Ca   0.0022590256867588
    Cl   0.093661759707663
    Mg   0.0015905912101797
    Na   0.13079640342955
    S   0.00029829569190971
  -activities
    As   -13.899926534911
    C(-4)   -142.72768717708
    C(4)   -5.353318452246
    Ca   -3.1265114229078
    Cl   -1.1561146964447
    Mg   -3.2568516726002
    Na   -1.0010893285216
    S(-2)   -142.10983219709
    S(6)   -4.1102669004701
  -gammas
  -Isotopes
SOLUTION_RAW       19 
  -temp              25
  -pH                7.7679407873248
  -pe                12.83790514848
  -mu                0.033317599963779
  -ah2o              0.99888536535179
  -total_h           111.02438936799
  -total_o           55.548033138477
  -cb                0.0060012278007486
  -mass_water        0.99998767286941
  -total_alkalinity  0.013497121595363
  -totals
    As   2.4640964751648e-08
    C   0.013835051514887
    Ca   0.00023227436719255
    Cl   0.015971120930519
    Mg   0.00016694961985697
    Na   0.035162593198116
    S   0.00024577310230982
  -activities
    As   -14.277360771394
    C(-4)   -143.82376317864
    C(4)   -4.5135671956256
    Ca   -3.9662626795283
    Cl   -1.8730053405466
    Mg   -4.0966029292206
    Na   -1.5291793426405
    S(-2)   -142.90547840555
    S(6)   -3.9427076287755
  -gammas
  -Isotopes
SOLUTION_RAW       20 
  -temp              25
  -pH                8.4299776845647
  -pe                12.175440371183
  -mu                0.014952895762295
  -ah2o              0.99951006061187
  -total_h           111.01992136668
  -total_o           55.53589549764
  -cb                0.0014702776693568
  -mass_water        0.99998172313192
  -total_alkalinity  0.0099315835692127
  -totals
    As   3.2871431890763e-07
    C   0.0097907454220615
    Ca   6.0304205871652e-05
    Cl   0.0034569954554069
    Mg   4.2477203039329e-05
    Na   0.015128248449252
    S   0.00023731292938944
  -activities
    As   -14.366699783905
    C(-4)   -144.60653299015
    C(4)   -3.9748716755849
    Ca   -4.504958199569
    Cl   -2.515674834361
    Mg   -4.6352984492613
    Na   -1.8757064551741
    S(-2)   -143.47801377092
    S(6)   -3.8555429946814
  -gammas
  -Isotopes
SOLUTION_RAW       21 
  -temp              25
  -pH                8.6059378554304
  -pe                11.999377503395
  -mu                0.010722059574573
  -ah2o              0.99965583520032
  -total_h           111.01872589777
  -total_o           55.532488232878
  -cb                0.00026067093300206
  -mass_water        0.99998129333161
  -total_alkalinity  0.0088676212643352
  -totals
    As   6.6875867767853e-07
    C   0.0086549215170072
    Ca   4.3874928218265e-05
    Cl   0.00084573158978427
    Mg   3.0517504558339e-05
    Na   0.010297002918628
    S   0.00023554761919113
  -activities
    As   -14.379203345074
    C(-4)   -144.83024003471
    C(4)   -3.8472899099337
    Ca   -4.6325399652201
    Cl   -3.1197278587926
    Mg   -4.7628802149125
    Na   -2.0360145740876
    S(-2)   -143.62335561129
    S(6)   -3.8254928239192
  -gammas
  -Isotopes
SOLUTION_RAW       22 
  -temp              25
  -pH                8.349542644281
  -pe                12.255735440341
  -mu                0.0093158029822068
  -ah2o              0.99970053492351
  -total_h           111.01839911207
  -total_o           55.531047496372
  -cb                -6.7755041509172e-05
  -mass_water        0.99998190367123
  -total_alkalinity  0.0082369832610717
  -totals
    As   2.2205736387374e-07
    C   0.0081753410420642
    Ca   7.5923429347917e-05
    Cl   0.00027082150258768
    Mg   5.4112713124332e-05
    Na   0.0086505175048433
    S   0.00023515900513687
  -activities
    As   -14.339658861196
    C(-4)   -144.59176494473
    C(4)   -4.1218447683835
    Ca   -4.3579851067703
    Cl   -3.6114187981307
    Mg   -4.4883253564627
    Na   -2.1084063760607
    S(-2)   -143.35710560431
    S(6)   -3.8158579572569
  -gammas
  -Isotopes
SOLUTION_RAW       23 
  -temp              25
  -pH                7.6543295609396
  -pe                12.950927472007
  -mu                0.0087350877821338
  -ah2o              0.99973532799201
  -total_h           111.01833754628
  -total_o           55.529773092049
  -cb                -0.00012929191589731
  -mass_water        0.99998662168664
  -total_alkalinity  0.007449643872588
  -totals
    As   1.1776987785507e-08
    C   0.0077508329123145
    Ca   0.00037648134286167
    Cl   0.00015585170965767
    Mg   0.00027528319699263
    Na   0.0066428489647241
    S   0.00023508130054828
  -activities
    As   -14.267583969132
    C(-4)   -143.9296584284
    C(4)   -4.8502879107749
    Ca   -3.6295419643789
    Cl   -3.8501356617589
    Mg   -3.7598822140713
    Na   -2.221291986771
    S(-2)   -142.67450894435
    S(6)   -3.8285829407363
  -gammas
  -Isotopes
SOLUTION_RAW       24 
  -temp              25
  -pH                7.593541832457
  -pe                13.011712897722
  -mu                0.0086853099560764
  -ah2o              0.99974103674202
  -total_h           111.0183245731
  -total_o           55.529590516935
  -cb                -0.0001423690444953
  -mass_water        0.99998742420278
  -total_alkalinity  0.0073410052557484
  -totals
    As   9.1774590590869e-09
    C   0.0076899797993731
    Ca   0.00043757614940636
    Cl   0.00013506119198728
    Mg   0.00032025528680596
    Na   0.0062881781726475
    S   0.00023506723218639
  -activities
    As   -14.262409008364
    C(-4)   -143.87508862593
    C(4)   -4.9173048887834
    Ca   -3.5625249863704
    Cl   -3.9122069636107
    Mg   -3.6928652360628
    Na   -2.2449786328016
    S(-2)   -142.61686145431
    S(6)   -3.8317320891866
  -gammas
  -Isotopes
SOLUTION_RAW       25 
  -temp              25
  -pH                7.5422337755446
  -pe                13.063019898623
  -mu                0.0086815774414263
  -ah2o              0.99974515116584
  -total_h           111.0183254732
  -total_o           55.529459680069
  -cb                -0.00014146752363642
  -mass_water        0.99998818311162
  -total_alkalinity  0.0072528855639153
  -totals
    As   7.4629038040701e-09
    C   0.0076463701436871
    Ca   0.00049724857773936
    Cl   0.00013407432654384
    Mg   0.00036417338232959
    Na   0.0059927890380098
    S   0.00023506656421057
  -activities
    As   -14.257562532266
    C(-4)   -143.82905645343
    C(4)   -4.973892392349
    Ca   -3.5059374828048
    Cl   -3.9153839809364
    Mg   -3.6362777324971
    Na   -2.2658350657951
    S(-2)   -142.56897321156
    S(6)   -3.8351537867629
  -gammas
  -Isotopes
SOLUTION_RAW       26 
  -temp              25
  -pH                7.4647328075583
  -pe                13.14051952178
  -mu                0.0086934708853561
  -ah2o              0.99975208808466
  -total_h           111.01832991301
  -total_o           55.529249094489
  -cb                -0.00013701532245299
  -mass_water        0.99998947208941
  -total_alkalinity  0.0071080527780492
  -totals
    As   5.4864556043e-09
    C   0.0075761789584568
    Ca   0.00060486305848098
    Cl   0.00013377509049027
    Mg   0.00044337499952782
    Na   0.0054784746407328
    S   0.00023506636210415
  -activities
    As   -14.249919518583
    C(-4)   -143.76054812294
    C(4)   -5.0603869566504
    Ca   -3.4194429185034
    Cl   -3.916381244391
    Mg   -3.5497831681958
    Na   -2.3047803927816
    S(-2)   -142.49773995599
    S(6)   -3.84141928691
  -gammas
  -Isotopes
SOLUTION_RAW       27 
  -temp              25
  -pH                6.8812067449166
  -pe                13.726329554932
  -mu                0.11204057947178
  -ah2o              0.99625605951679
  -total_h           111.03866073482
  -total_o           55.579867793714
  -cb                0.020589071807141
  -mass_water        1.0000553237313
  -total_alkalinity  0.020151894957285
  -totals
    As   1.7240209919626e-09
    C   0.024437257933358
    Ca   0.0018081355683135
    Cl   0.079064645438541
    Mg   0.0012784096691635
    Na   0.11420937807239
    S   0.0002884273101788
  -activities
    As   -13.961032645144
    C(-4)   -142.82023042985
    C(4)   -5.273413620046
    Ca   -3.2064162551078
    Cl   -1.2234821505033
    Mg   -3.3367565048002
    Na   -1.0553088677026
    S(-2)   -142.1786981884
    S(6)   -4.093717239516
  -gammas
  -Isotopes
SOLUTION_RAW       28 
  -temp              25
  -pH                7.7972656890727
  -pe                12.808552996872
  -mu                0.032249577334659
  -ah2o              0.99892165505215
  -total_h           111.02399626352
  -total_o           55.546962228105
  -cb                0.0056051350007202
  -mass_water        0.99998704134776
  -total_alkalinity  0.013179018431957
  -totals
    As   2.7492814415442e-08
    C   0.013478120037861
    Ca   0.0002202720965308
    Cl   0.01542336145812
    Mg   0.00015831683191202
    Na   0.033941170032111
    S   0.00024540275269232
  -activities
    As   -14.282591293183
    C(-4)   -143.86248881685
    C(4)   -4.4938136960738
    Ca   -3.98601617908
    Cl   -1.8871481383038
    Mg   -4.1163564287724
    Na   -1.5436022898094
    S(-2)   -142.93045285088
    S(6)   -3.9385120577713
  -gammas
  -Isotopes
SOLUTION_RAW       29 
  -temp              25
  -pH                8.4280604544141
  -pe                12.177363887236
  -mu                0.01523902901118
  -ah2o              0.99950034119355
  -total_h           111.01996232964
  -total_o           55.536022592732
  -cb                0.0015122880064997
  -mass_water        0.99998172475826
  -total_alkalinity  0.0099743535200484
  -totals
    As   3.268062936281e-07
    C   0.0098330665822908
    Ca   6.0565367892846e-05
    Cl   0.003680403649002
    Mg   4.2662330844861e-05
    Na   0.015435844462407
    S   0.00023746393901948
  -activities
    As   -14.367115048712
    C(-4)   -144.60324774207
    C(4)   -3.9753832690722
    Ca   -4.5044466060816
    Cl   -2.4889292863253
    Mg   -4.634786855774
    Na   -1.8673847763739
    S(-2)   -143.47781676754
    S(6)   -3.857229823414
  -gammas
  -Isotopes
SOLUTION_RAW       30 
  -temp              25
  -pH                8.6520288983589
  -pe                11.953295441073
  -mu                0.011069200518643
  -ah2o              0.99964514952568
  -total_h           111.01879666973
  -total_o           55.532810899026
  -cb                0.00033176651964737
  -mass_water        0.99998120767903
  -total_alkalinity  0.0090111491461161
  -totals
    As   8.1427898518781e-07
    C   0.0087622596876469
    Ca   3.993362937111e-05
    Cl   0.00099792600562098
    Mg   2.7616272607405e-05
    Na   0.010677857134681
    S   0.00023565049413421
  -activities
    As   -14.387824667382
    C(-4)   -144.87292532905
    C(4)   -3.7977316262448
    Ca   -4.6820982489091
    Cl   -3.0485320561758
    Mg   -4.8124384986014
    Na   -2.0210172852895
    S(-2)   -143.67196320787
    S(6)   -3.8279507108091
  -gammas
  -Isotopes
SOLUTION_RAW       31 
  -temp              25
  -pH                8.5478328888733
  -pe                12.05745506789
  -mu                0.0096576705724086
  -ah2o              0.9996907010386
  -total_h           111.01843263222
  -total_o           55.531457394057
  -cb                -3.4795350473051e-05
  -mass_water        0.99998140554941
  -total_alkalinity  0.0084762237272413
  -totals
    As   5.1839941715723e-07
    C   0.0083115695208358
    Ca   4.99775866883e-05
    Cl   0.00033550777270919
    Mg   3.5025403992715e-05
    Na   0.0090778540172275
    S   0.0002352027248475
  -activities
    As   -14.366365307499
    C(-4)   -144.78597940788
    C(4)   -3.9194125096756
    Ca   -4.5604173654782
    Cl   -3.5191169815639
    Mg   -4.6907576151706
    Na   -2.0885147581273
    S(-2)   -143.55682425883
    S(6)   -3.817224382305
  -gammas
  -Isotopes
SOLUTION_RAW       32 
  -temp              25
  -pH                7.9834333235669
  -pe                12.621829870385
  -mu                0.0088299120008574
  -ah2o              0.99971993111055
  -total_h           111.01832307309
  -total_o           55.530323400053
  -cb                -0.00014392681314861
  -mass_water        0.99998356347066
  -total_alkalinity  0.0078310161353494
  -totals
    As   4.6412383403691e-08
    C   0.007934221546204
    Ca   0.00017259327543683
    Cl   0.00014728194984668
    Mg   0.000125248191917
    Na   0.0077088857687465
    S   0.00023507550951162
  -activities
    As   -14.299683630946
    C(-4)   -144.23932875683
    C(4)   -4.5017214665737
    Ca   -3.9781084085801
    Cl   -3.8749049598511
    Mg   -4.1084486582725
    Na   -2.1570658498417
    S(-2)   -142.99245366924
    S(6)   -3.817401340939
  -gammas
  -Isotopes
SOLUTION_RAW       33 
  -temp              25
  -pH                7.6428502465251
  -pe                12.962405498007
  -mu                0.0086925884376243